
                                 *****************
                                 * O   R   C   A *
                                 *****************

                                            #,                                       
                                            ###                                      
                                            ####                                     
                                            #####                                    
                                            ######                                   
                                           ########,                                 
                                     ,,################,,,,,                         
                               ,,#################################,,                 
                          ,,##########################################,,             
                       ,#########################################, ''#####,          
                    ,#############################################,,   '####,        
                  ,##################################################,,,,####,       
                ,###########''''           ''''###############################       
              ,#####''   ,,,,##########,,,,          '''####'''          '####       
            ,##' ,,,,###########################,,,                        '##       
           ' ,,###''''                  '''############,,,                           
         ,,##''                                '''############,,,,        ,,,,,,###''
      ,#''                                            '''#######################'''  
     '                                                          ''''####''''         
             ,#######,   #######,   ,#######,      ##                                
            ,#'     '#,  ##    ##  ,#'     '#,    #''#        ,####,   ,####,        
            ##       ##  ##   ,#'  ##            #'  '#       #'       #'  '#        
            ##       ##  #######   ##           ,######,      #####,   #    #        
            '#,     ,#'  ##    ##  '#,     ,#' ,#      #,     #,   #   #,  ,#        
             '#######'   ##     ##  '#######'  #'      '#     '####' # '####'        



                #########################################################
                #                        -***-                          #
                #          Department of theory and spectroscopy        #
                #                                                       #
                #                      Frank Neese                      #
                #                                                       #
                #     Directorship, Architecture, Infrastructure        #
                #                    SHARK, DRIVERS                     #
                #        Core code/Algorithms in most modules           #
                #                                                       #
                #        Max Planck Institute fuer Kohlenforschung      #
                #                Kaiser Wilhelm Platz 1                 #
                #                 D-45470 Muelheim/Ruhr                 #
                #                      Germany                          #
                #                                                       #
                #                  All rights reserved                  #
                #                        -***-                          #
                #########################################################


                         Program Version 6.0.0  -   RELEASE  -


 With contributions from (in alphabetic order):
   Daniel Aravena         : Magnetic Suceptibility
   Michael Atanasov       : Ab Initio Ligand Field Theory (pilot matlab implementation)
   Alexander A. Auer      : GIAO ZORA, VPT2 properties, NMR spectrum
   Ute Becker             : All parallelization in ORCA, NUMFREQ, NUMCALC
   Giovanni Bistoni       : ED, misc. LED, open-shell LED, HFLD
   Martin Brehm           : Molecular dynamics
   Dmytro Bykov           : pre 5.0 version of the SCF Hessian
   Marcos Casanova-Páez   : Triplet and SCS-CIS(D). UHF-(DLPNO)-IP/EA/STEOM-CCSD. UHF-CVS-IP/STEOM-CCSD
   Vijay G. Chilkuri      : MRCI spin determinant printing, contributions to CSF-ICE
   Pauline Colinet        : FMM embedding
   Dipayan Datta          : RHF DLPNO-CCSD density
   Achintya Kumar Dutta   : EOM-CC, STEOM-CC
   Nicolas Foglia         : Exact transition moments, OPA infrastructure, MCD improvements
   Dmitry Ganyushin       : Spin-Orbit,Spin-Spin,Magnetic field MRCI
   Miquel Garcia          : C-PCM and meta-GGA Hessian, CCSD/C-PCM, Gaussian charge scheme
   Tiago L. C. Gouveia    : GS-ROHF, GS-ROCIS
   Yang Guo               : DLPNO-NEVPT2, F12-NEVPT2, CIM, IAO-localization
   Andreas Hansen         : Spin unrestricted coupled pair/coupled cluster methods
   Ingolf Harden          : AUTO-CI MPn and infrastructure 
   Benjamin Helmich-Paris : MC-RPA, TRAH-(SCF,CASSCF), AVAS, COSX integrals, SCF dyn. polar.
   Lee Huntington         : MR-EOM, pCC
   Robert Izsak           : Overlap fitted RIJCOSX, COSX-SCS-MP3, EOM
   Riya Kayal             : Wick's Theorem for AUTO-CI, AUTO-CI UHF-CCSDT
   Emily Kempfer          : AUTO-CI, RHF CISDT and CCSDT
   Christian Kollmar      : KDIIS, OOCD, Brueckner-CCSD(T), CCSD density, CASPT2, CASPT2-K, improved NEVPT2
   Axel Koslowski         : Symmetry handling
   Simone Kossmann        : Meta GGA functionals, TD-DFT gradient, OOMP2, (MP2 Hessian; deprecated post 5.0)
   Lucas Lang             : DCDCAS
   Marvin Lechner         : AUTO-CI (C++ implementation), FIC-MRCC
   Spencer Leger          : CASSCF response
   Dagmar Lenk            : GEPOL surface, SMD, ORCA-2-JSON
   Dimitrios Liakos       : Extrapolation schemes; Compound Job, initial MDCI parallelization
   Dimitrios Manganas     : Further ROCIS development; embedding schemes. LFT, Crystal Embedding
   Dimitrios Pantazis     : SARC Basis sets
   Anastasios Papadopoulos: AUTO-CI, single reference methods and gradients
   Taras Petrenko         : pre 6.0 DFT Hessian and TD-DFT gradient, (ASA, deprecated), ECA, 1-Electron XAS/XES, NRVS
   Peter Pinski           : DLPNO-MP2, DLPNO-MP2 Gradient
   Christoph Reimann      : Effective Core Potentials
   Marius Retegan         : Local ZFS, SOC
   Christoph Riplinger    : Optimizer, TS searches, QM/MM, DLPNO-CCSD(T), (RO)-DLPNO pert. Triples
   Michael Roemelt        : Original ROCIS implementation
   Masaaki Saitow         : Open-shell DLPNO-CCSD energy and density
   Barbara Sandhoefer     : DKH picture change effects
   Kantharuban Sivalingam : CASSCF convergence/infrastructure, NEVPT2 and variants, FIC-MRCI
   Bernardo de Souza      : ESD, SOC TD-DFT
   Georgi Stoychev        : AutoAux, RI-MP2 NMR, DLPNO-MP2 response, X2C
   Van Anh Tran           : RI-MP2 g-tensors
   Willem Van den Heuvel  : Paramagnetic NMR
   Zikuan Wang            : NOTCH, Electric field optimization 
   Frank Wennmohs         : Technical directorship and infrastructure
   Hang Xu                : AUTO-CI-Response properties 


 We gratefully acknowledge several colleagues who have allowed us to
 interface, adapt or use parts of their codes:
   Stefan Grimme, W. Hujo, H. Kruse, P. Pracht,  : VdW corrections, initial TS optimization,
                  C. Bannwarth, S. Ehlert,         DFT functionals, gCP, sTDA/sTD-DF
                  L. Wittmann, M. Mueller
   Ed Valeev, F. Pavosevic, A. Kumar             : LibInt (2-el integral package), F12 methods
   Garnet Chan, S. Sharma, J. Yang, R. Olivares  : DMRG
   Ulf Ekstrom                                   : XCFun DFT Library
   Mihaly Kallay                                 : mrcc  (arbitrary order and MRCC methods)
   Frank Weinhold                                : gennbo (NPA and NBO analysis)
   Simon Mueller                                 : openCOSMO-RS
   Christopher J. Cramer and Donald G. Truhlar   : smd solvation model
   Lars Goerigk                                  : TD-DFT with DH, B97 family of functionals
   V. Asgeirsson, H. Jonsson                     : NEB implementation
   FAccTs GmbH                                   : IRC, NEB, NEB-TS, DLPNO-Multilevel, CI-OPT
                                                   MM, QMMM, 2- and 3-layer-ONIOM, Crystal-QMMM,
                                                   LR-CPCM, SF, NACMEs, symmetry and pop. for TD-DFT,
                                                   nearIR, NL-DFT gradient (VV10), updates on ESD,
                                                   ML-optimized integration grids, MBIS, APM,
                                                   GOAT, DOCKER, SOLVATOR, interface openCOSMO-RS
   S Lehtola, MJT Oliveira, MAL Marques          : LibXC Library
   Liviu Ungur et al                             : ANISO software


 Your calculation uses the libint2 library for the computation of 2-el integrals
 For citations please refer to: http://libint.valeyev.net

 Your ORCA version has been built with support for libXC version: 6.2.2
 For citations please refer to: https://libxc.gitlab.io

 This ORCA versions uses:
   CBLAS   interface :  Fast vector & matrix operations
   LAPACKE interface :  Fast linear algebra routines
   SCALAPACK package :  Parallel linear algebra routines
   Shared memory     :  Shared parallel matrices
   BLAS/LAPACK       :  OpenBLAS 0.3.27  USE64BITINT DYNAMIC_ARCH NO_AFFINITY Zen SINGLE_THREADED
        Core in use  :  Zen
   Copyright (c) 2011-2014, The OpenBLAS Project


NOTE: MaxCore=2000 MB was set to SCF,MP2,MDCI,CIPSI,MRCI and CIS
      => If you want to overwrite this, your respective input block should be placed after the MaxCore statement


***************************************
The coordinates will be read from file: pyridine_c000.xyz
***************************************


Warning: RI is on but no J-basis has been assigned. Assigning Def2/J (nothing to worry about!)
================================================================================

----- Orbital basis set information -----
Your calculation utilizes the basis: def2-TZVP
   F. Weigend and R. Ahlrichs, Phys. Chem. Chem. Phys. 7, 3297 (2005).

----- AuxJ basis set information -----
Your calculation utilizes the auxiliary basis: def2/J
   F. Weigend, Phys. Chem. Chem. Phys. 8, 1057 (2006).

================================================================================
                                        WARNINGS
                       Please study these warnings very carefully!
================================================================================


WARNING: Geometry Optimization
  ===> : Switching off AutoStart
         For restart on a previous wavefunction, please use MOREAD



***************************************
The coordinates will be read from file: geo_opt_tzvp.xyz
***************************************


Warning: RI is on but no J-basis has been assigned. Assigning Def2/J (nothing to worry about!)
================================================================================

----- Orbital basis set information -----
Your calculation utilizes the basis: def2-TZVPD
   F. Weigend and R. Ahlrichs, Phys. Chem. Chem. Phys. 7, 3297 (2005).
   D. Rappoport and F. Furche, J. Chem. Phys. 133, 134105 (2010)
   D. Rappoport, J. Chem. Phys. 155, 124102 (2021).

----- AuxJ basis set information -----
Your calculation utilizes the auxiliary basis: def2/J
   F. Weigend, Phys. Chem. Chem. Phys. 8, 1057 (2006).

================================================================================
                                        WARNINGS
                       Please study these warnings very carefully!
================================================================================


================================================================================
                                       INPUT FILE
================================================================================
NAME = input.dat
|  1> %MaxCore 2000
|  2> 
|  3> %base "geo_opt_tzvp"
|  4> 
|  5> %cpcm
|  6> radius[1]  1.3
|  7> radius[2]  1.601
|  8> radius[5]  2.048
|  9> radius[6]  2.0
| 10> radius[7]  1.83
| 11> radius[8]  1.72
| 12> radius[9]  1.72
| 13> radius[10]  1.771
| 14> radius[13]  2.152
| 15> radius[14]  2.2
| 16> radius[15]  2.106
| 17> radius[16]  2.16
| 18> radius[17]  2.05
| 19> radius[18]  2.184
| 20> radius[22]  2.261
| 21> radius[26]  2.195
| 22> radius[27]  2.153
| 23> radius[31]  2.172
| 24> radius[32]  2.7
| 25> radius[33]  2.148
| 26> radius[34]  2.2
| 27> radius[35]  2.16
| 28> radius[36]  2.354
| 29> radius[49]  2.245
| 30> radius[50]  2.55
| 31> radius[51]  2.402
| 32> radius[53]  2.32
| 33> radius[54]  2.524
| 34> radius[80]  1.978
| 35> radius[82]  2.36
| 36> radius[86]  2.573
| 37> cut_area 0.03571064825863687
| 38> end
| 39> 
| 40> ! OPT CPCM BP86 def2-TZVP PAL16
| 41> 
| 42> * xyzfile 0 1 pyridine_c000.xyz
| 43> 
| 44> $new_job
| 45> 
| 46> ! CPCM BP86 def2-TZVPD SP PAL16
| 47> 
| 48> %base "single_point_tzvpd"
| 49> 
| 50> * xyzfile 0 1 geo_opt_tzvp.xyz
| 51> 
| 52>                          ****END OF INPUT****
================================================================================


                 $$$$$$$$$$$$$$$$$$$$$$$$$$$$$$$$$$$$$$$$$$$$$$ 
                 $ THERE ARE  2 JOBS TO BE PROCESSED THIS RUN $
                 $$$$$$$$$$$$$$$$$$$$$$$$$$$$$$$$$$$$$$$$$$$$$$ 




                 $$$$$$$$$$$$$$$$  JOB NUMBER  1 $$$$$$$$$$$$$$


                       *****************************
                       * Geometry Optimization Run *
                       *****************************

Geometry optimization settings:
Update method            Update   .... BFGS
Choice of coordinates    CoordSys .... (2022) Redundant Internals
Initial Hessian          InHess   .... Almloef's Model
Max. no of cycles        MaxIter  .... 50

Convergence Tolerances:
Energy Change            TolE     ....  5.0000e-06 Eh
Max. Gradient            TolMAXG  ....  3.0000e-04 Eh/bohr
RMS Gradient             TolRMSG  ....  1.0000e-04 Eh/bohr
Max. Displacement        TolMAXD  ....  4.0000e-03 bohr
RMS Displacement         TolRMSD  ....  2.0000e-03 bohr
Strict Convergence                .... False

------------------------------------------------------------------------------
                        ORCA OPTIMIZATION COORDINATE SETUP
------------------------------------------------------------------------------

The optimization will be done in redundant internal coordinates (2022)
Making redundant internal coordinates   ...  (2022 redundants) done
Evaluating the initial hessian          ...  (Almloef) done
Evaluating the coordinates              ...  done
Calculating the B-matrix                .... done
Calculating the G-matrix                .... done
Diagonalizing the G-matrix              .... done
The first mode is                       ....   20
The number of degrees of freedom        ....   27

    -----------------------------------------------------------------
                    Redundant Internal Coordinates


    -----------------------------------------------------------------
         Definition                    Initial Value    Approx d2E/dq
    -----------------------------------------------------------------
      1. B(C   1,C   0)                  1.3966         0.609729   
      2. B(C   2,C   1)                  1.3973         0.608208   
      3. B(N   3,C   2)                  1.3474         0.654458   
      4. B(C   4,N   3)                  1.3474         0.654382   
      5. B(C   5,C   4)                  1.3973         0.608325   
      6. B(C   5,C   0)                  1.3967         0.609682   
      7. B(H   6,C   0)                  1.0912         0.358462   
      8. B(H   7,C   1)                  1.0907         0.359153   
      9. B(H   8,C   2)                  1.0939         0.354970   
     10. B(H   9,C   4)                  1.0939         0.354977   
     11. B(H  10,C   5)                  1.0907         0.359166   
     12. A(C   1,C   0,C   5)          118.5594         0.431461   
     13. A(C   1,C   0,H   6)          120.7178         0.351642   
     14. A(C   5,C   0,H   6)          120.7228         0.351637   
     15. A(C   0,C   1,C   2)          118.5895         0.431273   
     16. A(C   2,C   1,H   7)          120.1695         0.351608   
     17. A(C   0,C   1,H   7)          121.2409         0.351756   
     18. A(N   3,C   2,H   8)          116.1424         0.353102   
     19. A(C   1,C   2,H   8)          120.2201         0.350912   
     20. A(C   1,C   2,N   3)          123.6375         0.433940   
     21. A(C   2,N   3,C   4)          116.9853         0.436814   
     22. A(C   5,C   4,H   9)          120.2211         0.350925   
     23. A(N   3,C   4,H   9)          116.1431         0.353096   
     24. A(N   3,C   4,C   5)          123.6357         0.433945   
     25. A(C   0,C   5,H  10)          121.2419         0.351754   
     26. A(C   0,C   5,C   4)          118.5924         0.431282   
     27. A(C   4,C   5,H  10)          120.1657         0.351621   
     28. D(C   2,C   1,C   0,H   6)    179.9995         0.025675   
     29. D(H   7,C   1,C   0,C   5)   -179.9996         0.025675   
     30. D(H   7,C   1,C   0,H   6)     -0.0008         0.025675   
     31. D(C   2,C   1,C   0,C   5)      0.0008         0.025675   
     32. D(N   3,C   2,C   1,H   7)    179.9955         0.025540   
     33. D(H   8,C   2,C   1,C   0)    179.9964         0.025540   
     34. D(N   3,C   2,C   1,C   0)     -0.0049         0.025540   
     35. D(H   8,C   2,C   1,H   7)     -0.0033         0.025540   
     36. D(C   4,N   3,C   2,H   8)   -179.9980         0.031690   
     37. D(C   4,N   3,C   2,C   1)      0.0032         0.031690   
     38. D(H   9,C   4,N   3,C   2)   -179.9907         0.031682   
     39. D(C   5,C   4,N   3,C   2)      0.0025         0.031682   
     40. D(H  10,C   5,C   0,C   1)   -179.9967         0.025671   
     41. D(C   4,C   5,C   0,H   6)   -179.9943         0.025671   
     42. D(C   4,C   5,C   0,C   1)      0.0044         0.025671   
     43. D(H  10,C   5,C   4,H   9)     -0.0123         0.025550   
     44. D(H  10,C   5,C   4,N   3)    179.9947         0.025550   
     45. D(C   0,C   5,C   4,H   9)    179.9866         0.025550   
     46. D(C   0,C   5,C   4,N   3)     -0.0064         0.025550   
     47. D(H  10,C   5,C   0,H   6)      0.0045         0.025671   
    -----------------------------------------------------------------

Number of atoms                         .... 11
Number of degrees of freedom            .... 47


         *************************************************************
         *                GEOMETRY OPTIMIZATION CYCLE   1            *
         *************************************************************
---------------------------------
CARTESIAN COORDINATES (ANGSTROEM)
---------------------------------
  C     -0.383571    1.131296    0.067663
  C     -1.291868    0.070990    0.030737
  C     -0.795038   -1.232630   -0.048322
  N      0.518539   -1.529398   -0.091459
  C      1.380667   -0.494552   -0.054945
  C      0.982183    0.842370    0.023929
  H     -0.733435    2.163091    0.129325
  H     -2.367900    0.246527    0.062440
  H     -1.482526   -2.082963   -0.078730
  H      2.443447   -0.751118   -0.090872
  H      1.729502    1.636388    0.050234

----------------------------
CARTESIAN COORDINATES (A.U.)
----------------------------
  NO LB      ZA    FRAG     MASS         X           Y           Z
   0 C     6.0000    0    12.011   -0.724844    2.137840    0.127864
   1 C     6.0000    0    12.011   -2.441278    0.134152    0.058085
   2 C     6.0000    0    12.011   -1.502404   -2.329334   -0.091316
   3 N     7.0000    0    14.007    0.979897   -2.890144   -0.172833
   4 C     6.0000    0    12.011    2.609082   -0.934568   -0.103830
   5 C     6.0000    0    12.011    1.856058    1.591848    0.045220
   6 H     1.0000    0     1.008   -1.385992    4.087649    0.244389
   7 H     1.0000    0     1.008   -4.474683    0.465869    0.117995
   8 H     1.0000    0     1.008   -2.801568   -3.936230   -0.148778
   9 H     1.0000    0     1.008    4.617446   -1.419407   -0.171724
  10 H     1.0000    0     1.008    3.268285    3.092324    0.094928

--------------------------------
INTERNAL COORDINATES (ANGSTROEM)
--------------------------------
 C      0   0   0     0.000000000000     0.00000000     0.00000000
 C      1   0   0     1.396644976419     0.00000000     0.00000000
 C      2   1   0     1.397324905826   118.58954133     0.00000000
 N      3   2   1     1.347374336335   123.63753165     0.00000000
 C      4   3   2     1.347406244019   116.98531118     0.00000000
 C      1   2   3     1.396666061643   118.55942901     0.00000000
 H      1   2   3     1.091240890698   120.71781990   179.99954940
 H      2   1   3     1.090716539707   121.24091013   179.99966640
 H      3   2   1     1.093905976940   120.22011095   179.99641051
 H      5   4   3     1.093900633574   116.14311821   180.00927366
 H      6   1   2     1.090706834516   121.24186963   180.00331107

---------------------------
INTERNAL COORDINATES (A.U.)
---------------------------
 C      0   0   0     0.000000000000     0.00000000     0.00000000
 C      1   0   0     2.639276511748     0.00000000     0.00000000
 C      2   1   0     2.640561392119   118.58954133     0.00000000
 N      3   2   1     2.546168495547   123.63753165     0.00000000
 C      4   3   2     2.546228792331   116.98531118     0.00000000
 C      1   2   3     2.639316357048   118.55942901     0.00000000
 H      1   2   3     2.062146429555   120.71781990   179.99954940
 H      2   1   3     2.061155549785   121.24091013   179.99966640
 H      3   2   1     2.067182712677   120.22011095   179.99641051
 H      5   4   3     2.067172615178   116.14311821   180.00927366
 H      6   1   2     2.061137209631   121.24186963   180.00331107

---------------------
BASIS SET INFORMATION
---------------------
There are 3 groups of distinct atoms

 Group   1 Type C   : 11s6p2d1f contracted to 5s3p2d1f pattern {62111/411/11/1}
 Group   2 Type N   : 11s6p2d1f contracted to 5s3p2d1f pattern {62111/411/11/1}
 Group   3 Type H   : 5s1p contracted to 3s1p pattern {311/1}

Atom   0C    basis set group =>   1
Atom   1C    basis set group =>   1
Atom   2C    basis set group =>   1
Atom   3N    basis set group =>   2
Atom   4C    basis set group =>   1
Atom   5C    basis set group =>   1
Atom   6H    basis set group =>   3
Atom   7H    basis set group =>   3
Atom   8H    basis set group =>   3
Atom   9H    basis set group =>   3
Atom  10H    basis set group =>   3
---------------------------------
AUXILIARY/J BASIS SET INFORMATION
---------------------------------
There are 3 groups of distinct atoms

 Group   1 Type C   : 12s5p4d2f1g contracted to 6s4p3d1f1g pattern {711111/2111/211/2/1}
 Group   2 Type N   : 12s5p4d2f1g contracted to 6s4p3d1f1g pattern {711111/2111/211/2/1}
 Group   3 Type H   : 5s2p1d contracted to 3s1p1d pattern {311/2/1}

Atom   0C    basis set group =>   1
Atom   1C    basis set group =>   1
Atom   2C    basis set group =>   1
Atom   3N    basis set group =>   2
Atom   4C    basis set group =>   1
Atom   5C    basis set group =>   1
Atom   6H    basis set group =>   3
Atom   7H    basis set group =>   3
Atom   8H    basis set group =>   3
Atom   9H    basis set group =>   3
Atom  10H    basis set group =>   3


           ************************************************************
           *        Program running with 16 parallel MPI-processes    *
           *              working on a common directory               *
           ************************************************************
------------------------------------------------------------------------------
                             ORCA STARTUP CALCULATIONS
                           -- RI-GTO INTEGRALS CHOSEN --
------------------------------------------------------------------------------
------------------------------------------------------------------------------
                   ___                                                        
                  /   \      - P O W E R E D   B Y -                         
                 /     \                                                     
                 |  |  |   _    _      __       _____    __    __             
                 |  |  |  | |  | |    /  \     |  _  \  |  |  /  |          
                  \  \/   | |  | |   /    \    | | | |  |  | /  /          
                 / \  \   | |__| |  /  /\  \   | |_| |  |  |/  /          
                |  |  |   |  __  | /  /__\  \  |    /   |      \           
                |  |  |   | |  | | |   __   |  |    \   |  |\   \          
                \     /   | |  | | |  |  |  |  | |\  \  |  | \   \       
                 \___/    |_|  |_| |__|  |__|  |_| \__\ |__|  \__/        
                                                                              
                      - O R C A' S   B I G   F R I E N D -                    
                                      &                                       
                       - I N T E G R A L  F E E D E R -                       
                                                                              
 v1 FN, 2020, v2 2021, v3 2022-2024                                           
------------------------------------------------------------------------------


----------------------
SHARK INTEGRAL PACKAGE
----------------------

Number of atoms                             ...     11
Number of basis functions                   ...    216
Number of shells                            ...     86
Maximum angular momentum                    ...      3
Integral batch strategy                     ... SHARK/LIBINT Hybrid
RI-J (if used) integral strategy            ... SPLIT-RIJ (Revised 2003 algorithm where possible)
Printlevel                                  ...      1
Contraction scheme used                     ... SEGMENTED contraction
Prescreening option                         ... SCHWARTZ
   Thresh                                   ... 2.500e-11
   Tcut                                     ... 2.500e-12
   Tpresel                                  ... 2.500e-12 
Coulomb Range Separation                    ... NOT USED
Exchange Range Separation                   ... NOT USED
Multipole approximations                    ... NOT USED
Finite Nucleus Model                        ... NOT USED
CABS basis                                  ... NOT available
Auxiliary Coulomb fitting basis             ... AVAILABLE
   # of basis functions in Aux-J            ...    349
   # of shells in Aux-J                     ...    115
   Maximum angular momentum in Aux-J        ...      4
Auxiliary J/K fitting basis                 ... NOT available
Auxiliary Correlation fitting basis         ... NOT available
Auxiliary 'external' fitting basis          ... NOT available

Checking pre-screening integrals            ... done (  0.0 sec) Dimension = 86
Check shell pair data                       ... done (  0.0 sec)
Shell pair information
Shell pair cut-off parameter TPreSel        ...   2.5e-12
Total number of shell pairs                 ...      3741
Shell pairs after pre-screening             ...      3623
Total number of primitive shell pairs       ...     11472
Primitive shell pairs kept                  ...      8831
          la=0 lb=0:    957 shell pairs
          la=1 lb=0:   1001 shell pairs
          la=1 lb=1:    274 shell pairs
          la=2 lb=0:    536 shell pairs
          la=2 lb=1:    276 shell pairs
          la=2 lb=2:     78 shell pairs
          la=3 lb=0:    270 shell pairs
          la=3 lb=1:    138 shell pairs
          la=3 lb=2:     72 shell pairs
          la=3 lb=3:     21 shell pairs

Calculating one electron integrals          ... done (  0.0 sec)
Calculating RI/J V-Matrix + Cholesky decomp.... done (  0.0 sec)
Calculating Nuclear repulsion               ... done (  0.0 sec) ENN=    205.209433543040 Eh

Diagonalization of the overlap matrix:
Smallest eigenvalue                        ... 6.340e-05
Time for diagonalization                   ...    0.004 sec
Threshold for overlap eigenvalues          ... 1.000e-07
Number of eigenvalues below threshold      ... 0
Time for construction of square roots      ...    0.002 sec
Total time needed                          ...    0.008 sec

-------------------
DFT GRID GENERATION
-------------------

General Integration Accuracy     IntAcc      ... 4.388
Radial Grid Type                 RadialGrid  ... OptM3 with GC (2021)
Angular Grid (max. ang.)         AngularGrid ... 4 (Lebedev-302)
Angular grid pruning method      GridPruning ... 4 (adaptive)
Weight generation scheme         WeightScheme... mBecke (2022)
Basis function cutoff            BFCut       ... 1.0000e-11
Integration weight cutoff        WCut        ... 1.0000e-14
Partially contracted basis set               ... off
Rotationally invariant grid construction     ... off
Angular grids for H and He will be reduced by one unit

Total number of grid points                  ...    52415
Total number of batches                      ...      825
Average number of points per batch           ...       63
Average number of grid points per atom       ...     4765
Initializing property integral containers    ... done (  0.0 sec)

SHARK setup successfully completed in   0.4 seconds

Maximum memory used throughout the entire STARTUP-calculation: 17.0 MB


           ************************************************************
           *        Program running with 16 parallel MPI-processes    *
           *              working on a common directory               *
           ************************************************************
-------------------------------------------------------------------------------
                                 ORCA GUESS
                   Start orbitals & Density for SCF / CASSCF
-------------------------------------------------------------------------------

------------
SCF SETTINGS
------------
Hamiltonian:
 Density Functional     Method          .... DFT(GTOs)
 Exchange Functional    Exchange        .... B88
   X-Alpha parameter    XAlpha          ....  0.666667
   Becke's b parameter  XBeta           ....  0.004200
 Correlation Functional Correlation     .... P86
 LDA part of GGA corr.  LDAOpt          .... PW91-LDA
 Gradients option       PostSCFGGA      .... off
   NL short-range parameter             ....  4.400000
 RI-approximation to the Coulomb term is turned on
   Number of AuxJ basis functions       .... 349


General Settings:
 Integral files         IntName         .... geo_opt_tzvp
 Hartree-Fock type      HFTyp           .... RHF
 Total Charge           Charge          ....    0
 Multiplicity           Mult            ....    1
 Number of Electrons    NEL             ....   42
 Basis Dimension        Dim             ....  216
 Nuclear Repulsion      ENuc            ....    205.2094335430 Eh

Convergence Acceleration:
 AO-DIIS                CNVDIIS         .... on
   Start iteration      DIISMaxIt       ....    12
   Startup error        DIISStart       ....  0.200000
   # of expansion vecs  DIISMaxEq       ....     5
   Bias factor          DIISBfac        ....   1.050
   Max. coefficient     DIISMaxC        ....  10.000
 MO-DIIS                CNVKDIIS        .... off
 Trust-Rad. Augm. Hess. CNVTRAH         .... auto
   Auto Start mean grad. ratio tolernc. ....  1.125000
   Auto Start start iteration           ....    50
   Auto Start num. interpolation iter.  ....    10
   Max. Number of Micro iterations      ....    24
   Max. Number of Macro iterations      .... Maxiter - #DIIS iter
   Number of Davidson start vectors     ....     2
   Converg. threshold    (grad. norm)   ....   1.000e-05
   Grad. Scal. Fac. for Micro threshold ....   0.100
   Minimum threshold for Micro iter.    ....   1.000e-02
   NR start threshold (gradient norm)   ....   1.000e-04
   Initial trust radius                 ....   0.400
   Minimum AH scaling param. (alpha)    ....   1.000
   Maximum AH scaling param. (alpha)    .... 1000.000
   Quad. conv. algorithm                .... NR
   White noise on init. David. guess    .... on
   Maximum white noise                  ....   0.010
   Pseudo random numbers                .... off
   Inactive MOs                         .... canonical
   Orbital update algorithm             .... Taylor
   Preconditioner                       .... Diag
   Full preconditioner red. dimension   ....   250
 SOSCF                  CNVSOSCF        .... on
   Start iteration      SOSCFMaxIt      ....   150
   Startup grad/error   SOSCFStart      ....  0.003300
   Hessian update       SOSCFHessUp     .... L-BFGS
 Level Shifting         CNVShift        .... on
   Level shift para.    LevelShift      ....    0.2500
   Turn off err/grad.   ShiftErr        ....    0.0010
 Zerner damping         CNVZerner       .... off
 Static damping         CNVDamp         .... on
   Fraction old density DampFac         ....    0.7000
   Max. Damping (<1)    DampMax         ....    0.9800
   Min. Damping (>=0)   DampMin         ....    0.0000
   Turn off err/grad.   DampErr         ....    0.1000

SCF Procedure:
 Maximum # iterations   MaxIter         ....   125
 SCF integral mode      SCFMode         .... Direct
   Integral package                     .... SHARK and LIBINT hybrid scheme
 Reset frequency        DirectResetFreq ....    20
 Integral Threshold     Thresh          ....  2.500e-11 Eh
 Primitive CutOff       TCut            ....  2.500e-12 Eh

Convergence Tolerance:
 Convergence Check Mode ConvCheckMode   .... Total+1el-Energy
 Convergence forced     ConvForced      .... 0
 Energy Change          TolE            ....  1.000e-08 Eh
 1-El. energy change                    ....  1.000e-05 Eh
 Orbital Gradient       TolG            ....  1.000e-05
 Orbital Rotation angle TolX            ....  1.000e-05
 DIIS Error             TolErr          ....  5.000e-07

------------------------------
INITIAL GUESS: MODEL POTENTIAL
------------------------------
Loading Hartree-Fock densities                     ... done
Calculating cut-offs                               ... done
Initializing the effective Hamiltonian             ... done
Setting up the integral package (SHARK)            ... done
Starting the Coulomb interaction                   ... done (   0.0 sec)
Making the grid                                    ... done (   0.1 sec)
Mapping shells                                     ... done
Starting the XC term evaluation                    ... done (   0.0 sec)
  promolecular density results
     # of electrons  =     41.998418108
     EX              =    -33.720794410
     EC              =     -1.505401238
     EX+EC           =    -35.226195647
Transforming the Hamiltonian                       ... done (   0.0 sec)
Diagonalizing the Hamiltonian                      ... done (   0.0 sec)
Back transforming the eigenvectors                 ... done (   0.0 sec)
Now organizing SCF variables                       ... done
                      ------------------
                      INITIAL GUESS DONE (   0.1 sec)
                      ------------------
             **** ENERGY FILE WAS UPDATED (geo_opt_tzvp.en.tmp) ****
Finished Guess after   0.8 sec
Maximum memory used throughout the entire GUESS-calculation: 11.7 MB


           ************************************************************
           *        Program running with 16 parallel MPI-processes    *
           *              working on a common directory               *
           ************************************************************

-------------------------------------------------------------------------------------------
                                      ORCA LEAN-SCF
                              memory conserving SCF solver
-------------------------------------------------------------------------------------------

--------------------
CPCM SOLVATION MODEL
--------------------
CPCM parameters:
  Epsilon                                         ...     INFINITY
  Refrac                                          ...       1.3300
  Rsolv                                           ...       1.3000
  Surface type                                    ... GAUSSIAN VDW
  Discretization scheme                           ... Constant charge density
    Threshold for H atoms                         ...       5.0000 (charges/Ang^2)
    Threshold for non-H atoms                     ...       5.0000 (charges/Ang^2)
  Epsilon function type                           ...         CPCM
Solvent:                                          ... CONDUCTOR
Radii:
  Scheme                                          ... Element-dependent radii
  Radius for C  used is    3.7795 Bohr (=   2.0000 Ang.)
  Radius for N  used is    3.4582 Bohr (=   1.8300 Ang.)
  Radius for H  used is    2.4566 Bohr (=   1.3000 Ang.)
Calculating surface                               ...        done! (  0.0s)
Cavity surface points                             ...          842
Cavity Volume                                     ...     701.9362
Cavity Surface-area                               ...     419.2817
Calculating surface distance matrix               ...        done! (  0.0s)
Performing Cholesky decomposition & store         ...        done! (  0.0s)
Overall time for CPCM initialization              ...                 0.0s

----------------------------------------D-I-I-S--------------------------------------------
Iteration    Energy (Eh)           Delta-E    RMSDP     MaxDP     DIISErr   Damp  Time(sec)
-------------------------------------------------------------------------------------------
               ***  Starting incremental Fock matrix formation  ***
    1    -248.2687266927877943     0.00e+00  1.70e-03  4.94e-02  1.77e-01  0.700   0.3
    2    -248.3233348291035725    -5.46e-02  1.69e-03  6.01e-02  7.57e-02  0.700   0.3
                               ***Turning on AO-DIIS***
    3    -248.3439999816973511    -2.07e-02  8.58e-04  2.73e-02  2.31e-02  0.700   0.3
    4    -248.3561393242239035    -1.21e-02  1.37e-03  4.28e-02  1.03e-02  0.000   0.3
    5    -248.3829273646764761    -2.68e-02  4.26e-04  1.85e-02  4.82e-03  0.000   0.3
                              *** Initializing SOSCF ***
---------------------------------------S-O-S-C-F--------------------------------------
Iteration    Energy (Eh)           Delta-E    RMSDP     MaxDP     MaxGrad    Time(sec)
--------------------------------------------------------------------------------------
    6    -248.3831403433131584    -2.13e-04  1.58e-04  6.18e-03  1.09e-03     0.3
               *** Restarting incremental Fock matrix formation ***
    7    -248.3831542460311255    -1.39e-05  1.22e-04  4.73e-03  3.43e-04     0.3
    8    -248.3831508963050112     3.35e-06  2.12e-05  6.87e-04  6.51e-04     0.2
    9    -248.3831565581604366    -5.66e-06  2.39e-05  8.37e-04  5.65e-05     0.2
   10    -248.3831565681410609    -9.98e-09  2.93e-06  1.19e-04  7.25e-05     0.2
                 **** Energy Check signals convergence ****

               *****************************************************
               *                     SUCCESS                       *
               *           SCF CONVERGED AFTER  10 CYCLES          *
               *****************************************************

             **** ENERGY FILE WAS UPDATED (geo_opt_tzvp.en.tmp) ****

----------------
TOTAL SCF ENERGY
----------------

Total Energy       :       -248.38315656814106 Eh           -6758.84930 eV

Components:
Nuclear Repulsion  :        205.20943354304043 Eh            5584.03257 eV
Electronic Energy  :       -453.58276453967659 Eh          -12342.61451 eV
One Electron Energy:       -740.38767318579119 Eh          -20146.97284 eV
Two Electron Energy:        286.80490864611460 Eh            7804.35833 eV
CPCM Dielectric    :         -0.00982557150492 Eh              -0.26737 eV

Virial components:
Potential Energy   :       -495.55562520890271 Eh          -13484.75411 eV
Kinetic Energy     :        247.17246864076165 Eh            6725.90481 eV
Virial Ratio       :          2.00489815040501

DFT components:
N(Alpha)           :       20.999987242044 electrons
N(Beta)            :       20.999987242044 electrons
N(Total)           :       41.999974484088 electrons
E(X)               :      -34.391138477142 Eh       
E(C)               :       -1.508144026621 Eh       
E(XC)              :      -35.899282503762 Eh       

CPCM Solvation Model Properties:
Surface-charge          :         -0.02423201253902
Corrected charge        :         -0.00000000000000
Outlying charge corr.   :          0.00005148187976 Eh               0.00140 eV
Free-energy (cav+disp)  :  This term is not implemented in the current solvation scheme

---------------
SCF CONVERGENCE
---------------

  Last Energy change         ...    9.9806e-09  Tolerance :   1.0000e-08
  Last MAX-Density change    ...    1.1943e-04  Tolerance :   1.0000e-07
  Last RMS-Density change    ...    2.9257e-06  Tolerance :   5.0000e-09
  Last DIIS Error            ...    1.0873e-03  Tolerance :   5.0000e-07
  Last Orbital Gradient      ...    7.2490e-05  Tolerance :   1.0000e-05
  Last Orbital Rotation      ...    1.4421e-04  Tolerance :   1.0000e-05


----------------
ORBITAL ENERGIES
----------------

  NO   OCC          E(Eh)            E(eV) 
   0   2.0000     -14.005958      -381.1215 
   1   2.0000      -9.935409      -270.3562 
   2   2.0000      -9.935398      -270.3559 
   3   2.0000      -9.919758      -269.9303 
   4   2.0000      -9.911133      -269.6956 
   5   2.0000      -9.911116      -269.6952 
   6   2.0000      -0.865965       -23.5641 
   7   2.0000      -0.734597       -19.9894 
   8   2.0000      -0.694784       -18.9060 
   9   2.0000      -0.572957       -15.5910 
  10   2.0000      -0.570096       -15.5131 
  11   2.0000      -0.477589       -12.9959 
  12   2.0000      -0.435556       -11.8521 
  13   2.0000      -0.419404       -11.4126 
  14   2.0000      -0.383096       -10.4246 
  15   2.0000      -0.367455        -9.9990 
  16   2.0000      -0.359181        -9.7738 
  17   2.0000      -0.322383        -8.7725 
  18   2.0000      -0.270214        -7.3529 
  19   2.0000      -0.247257        -6.7282 
  20   2.0000      -0.229706        -6.2506 
  21   0.0000      -0.071564        -1.9473 
  22   0.0000      -0.056723        -1.5435 
  23   0.0000       0.041719         1.1352 
  24   0.0000       0.073498         2.0000 
  25   0.0000       0.079345         2.1591 
  26   0.0000       0.081868         2.2277 
  27   0.0000       0.090174         2.4538 
  28   0.0000       0.099847         2.7170 
  29   0.0000       0.116533         3.1710 
  30   0.0000       0.152097         4.1388 
  31   0.0000       0.176829         4.8118 
*Only the first 10 virtual orbitals were printed.

                    ********************************
                    * MULLIKEN POPULATION ANALYSIS *
                    ********************************

-----------------------
MULLIKEN ATOMIC CHARGES
-----------------------
   0 C :   -0.121401
   1 C :   -0.139403
   2 C :   -0.049847
   3 N :   -0.283195
   4 C :   -0.049825
   5 C :   -0.139289
   6 H :    0.161969
   7 H :    0.155648
   8 H :    0.154846
   9 H :    0.154849
  10 H :    0.155648
Sum of atomic charges:   -0.0000000

--------------------------------
MULLIKEN REDUCED ORBITAL CHARGES
--------------------------------
  0 C s       :     3.231010  s :     3.231010
      pz      :     0.912368  p :     2.802504
      px      :     0.906256
      py      :     0.983880
      dz2     :     0.004672  d :     0.081098
      dxz     :     0.019253
      dyz     :     0.006868
      dx2y2   :     0.027320
      dxy     :     0.022985
      f0      :     0.001395  f :     0.006788
      f+1     :     0.000390
      f-1     :     0.000540
      f+2     :     0.000497
      f-2     :     0.000752
      f+3     :     0.001366
      f-3     :     0.001848

  1 C s       :     3.228860  s :     3.228860
      pz      :     0.960826  p :     2.826425
      px      :     0.967525
      py      :     0.898074
      dz2     :     0.005041  d :     0.077378
      dxz     :     0.005840
      dyz     :     0.016894
      dx2y2   :     0.033460
      dxy     :     0.016143
      f0      :     0.001403  f :     0.006739
      f+1     :     0.000588
      f-1     :     0.000424
      f+2     :     0.000260
      f-2     :     0.000894
      f+3     :     0.001232
      f-3     :     0.001939

  2 C s       :     3.202019  s :     3.202019
      pz      :     0.921090  p :     2.740286
      px      :     0.875960
      py      :     0.943236
      dz2     :     0.003629  d :     0.097859
      dxz     :     0.020078
      dyz     :     0.012261
      dx2y2   :     0.020908
      dxy     :     0.040983
      f0      :     0.001630  f :     0.009683
      f+1     :     0.000896
      f-1     :     0.000535
      f+2     :     0.001402
      f-2     :     0.000292
      f+3     :     0.002159
      f-3     :     0.002770

  3 N s       :     3.557216  s :     3.557216
      pz      :     1.129042  p :     3.662073
      px      :     1.045116
      py      :     1.487914
      dz2     :     0.005941  d :     0.060405
      dxz     :     0.012581
      dyz     :     0.008845
      dx2y2   :     0.016221
      dxy     :     0.016817
      f0      :     0.000552  f :     0.003501
      f+1     :     0.000270
      f-1     :     0.000196
      f+2     :     0.000354
      f-2     :     0.000458
      f+3     :     0.000762
      f-3     :     0.000910

  4 C s       :     3.202024  s :     3.202024
      pz      :     0.921121  p :     2.740256
      px      :     0.978158
      py      :     0.840977
      dz2     :     0.003617  d :     0.097863
      dxz     :     0.008590
      dyz     :     0.023759
      dx2y2   :     0.036428
      dxy     :     0.025468
      f0      :     0.001632  f :     0.009683
      f+1     :     0.000716
      f-1     :     0.000713
      f+2     :     0.000336
      f-2     :     0.001357
      f+3     :     0.002194
      f-3     :     0.002735

  5 C s       :     3.228722  s :     3.228722
      pz      :     0.960856  p :     2.826462
      px      :     0.925325
      py      :     0.940281
      dz2     :     0.005040  d :     0.077366
      dxz     :     0.012739
      dyz     :     0.009995
      dx2y2   :     0.014637
      dxy     :     0.034955
      f0      :     0.001402  f :     0.006738
      f+1     :     0.000492
      f-1     :     0.000522
      f+2     :     0.000986
      f-2     :     0.000167
      f+3     :     0.001473
      f-3     :     0.001698

  6 H s       :     0.816738  s :     0.816738
      pz      :     0.004307  p :     0.021293
      px      :     0.004680
      py      :     0.012306

  7 H s       :     0.822808  s :     0.822808
      pz      :     0.004650  p :     0.021545
      px      :     0.012995
      py      :     0.003899

  8 H s       :     0.824329  s :     0.824329
      pz      :     0.004336  p :     0.020825
      px      :     0.006997
      py      :     0.009491

  9 H s       :     0.824327  s :     0.824327
      pz      :     0.004339  p :     0.020824
      px      :     0.012733
      py      :     0.003752

 10 H s       :     0.822805  s :     0.822805
      pz      :     0.004648  p :     0.021548
      px      :     0.008149
      py      :     0.008751



                     *******************************
                     * LOEWDIN POPULATION ANALYSIS *
                     *******************************

----------------------
LOEWDIN ATOMIC CHARGES
----------------------
   0 C :   -0.118259
   1 C :   -0.147024
   2 C :   -0.216177
   3 N :    0.082031
   4 C :   -0.216176
   5 C :   -0.147048
   6 H :    0.158303
   7 H :    0.157419
   8 H :    0.144756
   9 H :    0.144768
  10 H :    0.157406

-------------------------------
LOEWDIN REDUCED ORBITAL CHARGES
-------------------------------
  0 C s       :     2.779352  s :     2.779352
      pz      :     0.842731  p :     2.914677
      px      :     1.064149
      py      :     1.007797
      dz2     :     0.025326  d :     0.381576
      dxz     :     0.067785
      dyz     :     0.018871
      dx2y2   :     0.142964
      dxy     :     0.126631
      f0      :     0.002951  f :     0.042653
      f+1     :     0.004216
      f-1     :     0.003243
      f+2     :     0.003548
      f-2     :     0.005241
      f+3     :     0.010187
      f-3     :     0.013267

  1 C s       :     2.781809  s :     2.781809
      pz      :     0.884736  p :     2.956796
      px      :     1.001775
      py      :     1.070285
      dz2     :     0.026341  d :     0.366538
      dxz     :     0.014917
      dyz     :     0.063049
      dx2y2   :     0.158348
      dxy     :     0.103883
      f0      :     0.003080  f :     0.041881
      f+1     :     0.003262
      f-1     :     0.004434
      f+2     :     0.001941
      f-2     :     0.006257
      f+3     :     0.009757
      f-3     :     0.013149

  2 C s       :     2.792255  s :     2.792255
      pz      :     0.864586  p :     2.886437
      px      :     0.975816
      py      :     1.046035
      dz2     :     0.032458  d :     0.479042
      dxz     :     0.062995
      dyz     :     0.038992
      dx2y2   :     0.120902
      dxy     :     0.223695
      f0      :     0.003911  f :     0.058442
      f+1     :     0.005885
      f-1     :     0.003831
      f+2     :     0.009550
      f-2     :     0.001844
      f+3     :     0.013782
      f-3     :     0.019638

  3 N s       :     3.061486  s :     3.061486
      pz      :     1.031914  p :     3.623917
      px      :     1.186870
      py      :     1.405133
      dz2     :     0.017594  d :     0.215025
      dxz     :     0.042945
      dyz     :     0.013051
      dx2y2   :     0.070322
      dxy     :     0.071112
      f0      :     0.000977  f :     0.017540
      f+1     :     0.001942
      f-1     :     0.000795
      f+2     :     0.001450
      f-2     :     0.002250
      f+3     :     0.004547
      f-3     :     0.005578

  4 C s       :     2.792250  s :     2.792250
      pz      :     0.864586  p :     2.886445
      px      :     0.976741
      py      :     1.045118
      dz2     :     0.032419  d :     0.479038
      dxz     :     0.019772
      dyz     :     0.082229
      dx2y2   :     0.210086
      dxy     :     0.134533
      f0      :     0.003913  f :     0.058442
      f+1     :     0.003933
      f-1     :     0.005782
      f+2     :     0.002321
      f-2     :     0.009066
      f+3     :     0.014961
      f-3     :     0.018466

  5 C s       :     2.781797  s :     2.781797
      pz      :     0.884775  p :     2.956810
      px      :     1.035780
      py      :     1.036256
      dz2     :     0.026374  d :     0.366559
      dxz     :     0.042298
      dyz     :     0.035653
      dx2y2   :     0.100724
      dxy     :     0.161510
      f0      :     0.003078  f :     0.041883
      f+1     :     0.003826
      f-1     :     0.003873
      f+2     :     0.006902
      f-2     :     0.001299
      f+3     :     0.010441
      f-3     :     0.012465

  6 H s       :     0.783230  s :     0.783230
      pz      :     0.011846  p :     0.058467
      px      :     0.013326
      py      :     0.033296

  7 H s       :     0.783290  s :     0.783290
      pz      :     0.012905  p :     0.059291
      px      :     0.034952
      py      :     0.011434

  8 H s       :     0.797557  s :     0.797557
      pz      :     0.012157  p :     0.057687
      px      :     0.019467
      py      :     0.026062

  9 H s       :     0.797543  s :     0.797543
      pz      :     0.012166  p :     0.057689
      px      :     0.034850
      py      :     0.010673

 10 H s       :     0.783304  s :     0.783304
      pz      :     0.012900  p :     0.059291
      px      :     0.022305
      py      :     0.024085



                      *****************************
                      * MAYER POPULATION ANALYSIS *
                      *****************************

  NA   - Mulliken gross atomic population
  ZA   - Total nuclear charge
  QA   - Mulliken gross atomic charge
  VA   - Mayer's total valence
  BVA  - Mayer's bonded valence
  FA   - Mayer's free valence

  ATOM       NA         ZA         QA         VA         BVA        FA
  0 C      6.1214     6.0000    -0.1214     3.9191     3.9191    -0.0000
  1 C      6.1394     6.0000    -0.1394     3.8960     3.8960    -0.0000
  2 C      6.0498     6.0000    -0.0498     4.0054     4.0054    -0.0000
  3 N      7.2832     7.0000    -0.2832     3.0710     3.0710    -0.0000
  4 C      6.0498     6.0000    -0.0498     4.0052     4.0052    -0.0000
  5 C      6.1393     6.0000    -0.1393     3.8957     3.8957    -0.0000
  6 H      0.8380     1.0000     0.1620     0.9590     0.9590    -0.0000
  7 H      0.8444     1.0000     0.1556     0.9627     0.9627     0.0000
  8 H      0.8452     1.0000     0.1548     0.9678     0.9678    -0.0000
  9 H      0.8452     1.0000     0.1548     0.9678     0.9678     0.0000
 10 H      0.8444     1.0000     0.1556     0.9627     0.9627    -0.0000

  Mayer bond orders larger than 0.100000
B(  0-C ,  1-C ) :   1.4194 B(  0-C ,  5-C ) :   1.4192 B(  0-C ,  6-H ) :   0.9526 
B(  1-C ,  2-C ) :   1.4212 B(  1-C ,  7-H ) :   0.9478 B(  2-C ,  3-N ) :   1.4712 
B(  2-C ,  8-H ) :   0.9484 B(  3-N ,  4-C ) :   1.4711 B(  4-C ,  5-C ) :   1.4212 
B(  4-C ,  9-H ) :   0.9484 B(  5-C , 10-H ) :   0.9479 

-------
TIMINGS
-------

Total SCF time: 0 days 0 hours 0 min 3 sec 

Total time                  ....       3.586 sec
Sum of individual times     ....       3.445 sec  ( 96.1%)

SCF preparation             ....       0.799 sec  ( 22.3%)
Fock matrix formation       ....       2.295 sec  ( 64.0%)
  Startup                   ....       0.031 sec  (  1.4% of F)
  Split-RI-J                ....       0.343 sec  ( 15.0% of F)
  XC integration            ....       1.531 sec  ( 66.7% of F)
    XC Preparation          ....       0.000 sec  (  0.0% of XC)
    Basis function eval.    ....       0.127 sec  (  8.3% of XC)
    Density eval.           ....       0.094 sec  (  6.1% of XC)
    XC-Functional eval.     ....       0.022 sec  (  1.5% of XC)
    XC-Potential eval.      ....       0.180 sec  ( 11.8% of XC)
  CPCM terms                ....       0.303 sec  ( 13.2% of F)
Diagonalization             ....       0.000 sec  (  0.0%)
Density matrix formation    ....       0.050 sec  (  1.4%)
Total Energy calculation    ....       0.038 sec  (  1.1%)
Population analysis         ....       0.025 sec  (  0.7%)
Orbital Transformation      ....       0.029 sec  (  0.8%)
Orbital Orthonormalization  ....       0.000 sec  (  0.0%)
DIIS solution               ....       0.152 sec  (  4.2%)
SOSCF solution              ....       0.057 sec  (  1.6%)
Finished LeanSCF after   3.6 sec

Maximum memory used throughout the entire LEANSCF-calculation: 15.8 MB

-------------------------   --------------------
FINAL SINGLE POINT ENERGY      -248.383156568141
-------------------------   --------------------



           ************************************************************
           *        Program running with 16 parallel MPI-processes    *
           *              working on a common directory               *
           ************************************************************
------------------------------------------------------------------------------
                         ORCA SCF GRADIENT CALCULATION
------------------------------------------------------------------------------

Nuc. rep. gradient        (SHARK) ... done (  0.0 sec)
HCore & Overlap gradient  (SHARK) ... done (  0.0 sec)
Split-RIJ-J gradient      (SHARK) ... done (  0.2 sec)
XC gradient                       ... done (  0.4 sec)
CPCM gradient                     ... done (  0.1 sec)

------------------
CARTESIAN GRADIENT
------------------

   1   C   :    0.000012864   -0.000040069   -0.000002134
   2   C   :   -0.000035254    0.000006137   -0.000001315
   3   C   :   -0.000389079    0.000433333    0.000036087
   4   N   :    0.000357555   -0.001047002   -0.000063253
   5   C   :    0.000040800    0.000595059    0.000029873
   6   C   :    0.000031848    0.000025962    0.000005243
   7   H   :    0.000018142   -0.000046193   -0.000002592
   8   H   :    0.000046165    0.000058233    0.000006258
   9   H   :    0.000029938    0.000017752   -0.000001871
  10   H   :   -0.000037661   -0.000017954   -0.000002573
  11   H   :   -0.000075318    0.000014742   -0.000003724

Difference to translation invariance:
           :    0.0000000000   -0.0000000000   -0.0000000000

Difference to rotation invariance:
           :   -0.0000071723    0.0000422624   -0.0000498125

Norm of the Cartesian gradient     ...    0.0013952944
RMS gradient                       ...    0.0002428896
MAX gradient                       ...    0.0010470024

-------
TIMINGS
-------

Total SCF gradient time     ....        0.821 sec

Densities                   ....       0.002 sec  (  0.2%)
One electron gradient       ....       0.026 sec  (  3.1%)
RI-J Coulomb gradient       ....       0.167 sec  ( 20.4%)
XC gradient                 ....       0.427 sec  ( 52.0%)
CPCM gradient               ....       0.083 sec  ( 10.1%)
   A-Matrix (El+Nuc)        ....       0.024 sec  (  2.9%)
   Potential                ....       0.059 sec  (  7.2%)

Maximum memory used throughout the entire SCFGRAD-calculation: 22.4 MB
------------------------------------------------------------------------------
                         ORCA GEOMETRY RELAXATION STEP
------------------------------------------------------------------------------

Reading the OPT-File                    .... done
Getting information on internals        .... done
Copying old internal coords+grads       .... done
Making the new internal coordinates     .... (2022 redundants) done
Validating the new internal coordinates .... (2022 redundants) done
Calculating the B-matrix                .... done
Calculating the G,G- and P matrices     .... done
Transforming gradient to internals      .... done
Projecting the internal gradient        .... done
Number of atoms                         ....  11
Number of internal coordinates          ....  47
Current Energy                          ....  -248.383156568 Eh
Current gradient norm                   ....     0.001395294 Eh/bohr
Maximum allowed component of the step   ....  0.300
Current trust radius                    ....  0.300
Evaluating the initial hessian          ....  (Almloef) done
Projecting the Hessian                  .... done
Forming the augmented Hessian           .... done
Diagonalizing the augmented Hessian     .... done
Last element of RFO vector              ....  0.999998139
Lowest eigenvalues of augmented Hessian:
 -0.000001896  0.025598674  0.025609375  0.025637259  0.025672659
Length of the computed step             ....  0.001929152
The final length of the internal step   ....  0.001929152
Converting the step to Cartesian space:
 Initial RMS(Int)=    0.0002813958
Transforming coordinates:
 Iter   0:  RMS(Cart)=    0.0003595298 RMS(Int)=    0.9164930423
done
Storing new coordinates                 .... done

                                .--------------------.
          ----------------------|Geometry convergence|-------------------------
          Item                value                   Tolerance       Converged
          ---------------------------------------------------------------------
          RMS gradient        0.0001473517            0.0001000000      NO
          MAX gradient        0.0005356394            0.0003000000      NO
          RMS step            0.0002813958            0.0020000000      YES
          MAX step            0.0011003000            0.0040000000      YES
          ........................................................
          Max(Bonds)      0.0004      Max(Angles)    0.06
          Max(Dihed)        0.01      Max(Improp)    0.00
          ---------------------------------------------------------------------

       The step convergence is overachieved with 
       reasonable convergence on the gradient
       Convergence will therefore be signaled now


                    ***********************HURRAY********************
                    ***        THE OPTIMIZATION HAS CONVERGED     ***
                    *************************************************


    ---------------------------------------------------------------------------
                         Redundant Internal Coordinates

                          --- Optimized Parameters ---  
                            (Angstroem and degrees)

        Definition                    OldVal   dE/dq     Step     FinalVal
    ----------------------------------------------------------------------------
     1. B(C   1,C   0)                1.3966 -0.000132  0.0001    1.3968   
     2. B(C   2,C   1)                1.3973  0.000014 -0.0000    1.3973   
     3. B(N   3,C   2)                1.3474  0.000536 -0.0004    1.3469   
     4. B(C   4,N   3)                1.3474  0.000535 -0.0004    1.3470   
     5. B(C   5,C   4)                1.3973  0.000012 -0.0000    1.3973   
     6. B(C   5,C   0)                1.3967 -0.000132  0.0001    1.3968   
     7. B(H   6,C   0)                1.0912 -0.000050  0.0001    1.0913   
     8. B(H   7,C   1)                1.0907 -0.000036  0.0001    1.0908   
     9. B(H   8,C   2)                1.0939 -0.000033  0.0000    1.0940   
    10. B(H   9,C   4)                1.0939 -0.000032  0.0000    1.0939   
    11. B(H  10,C   5)                1.0907 -0.000041  0.0001    1.0908   
    12. A(C   1,C   0,C   5)          118.56  0.000049   -0.00    118.56   
    13. A(C   1,C   0,H   6)          120.72 -0.000024    0.00    120.72   
    14. A(C   5,C   0,H   6)          120.72 -0.000025    0.00    120.72   
    15. A(C   0,C   1,C   2)          118.59  0.000050   -0.00    118.59   
    16. A(C   2,C   1,H   7)          120.17  0.000041   -0.01    120.16   
    17. A(C   0,C   1,H   7)          121.24 -0.000090    0.01    121.25   
    18. A(N   3,C   2,H   8)          116.14 -0.000107    0.02    116.16   
    19. A(C   1,C   2,H   8)          120.22 -0.000078    0.01    120.23   
    20. A(C   1,C   2,N   3)          123.64  0.000185   -0.03    123.61   
    21. A(C   2,N   3,C   4)          116.99 -0.000519    0.06    117.05   
    22. A(C   5,C   4,H   9)          120.22 -0.000069    0.01    120.23   
    23. A(N   3,C   4,H   9)          116.14 -0.000120    0.02    116.16   
    24. A(N   3,C   4,C   5)          123.64  0.000188   -0.03    123.61   
    25. A(C   0,C   5,H  10)          121.24 -0.000092    0.01    121.25   
    26. A(C   0,C   5,C   4)          118.59  0.000047   -0.00    118.59   
    27. A(C   4,C   5,H  10)          120.17  0.000045   -0.01    120.16   
    28. D(C   2,C   1,C   0,H   6)    180.00 -0.000001    0.00    180.00   
    29. D(H   7,C   1,C   0,C   5)   -180.00 -0.000000    0.00   -180.00   
    30. D(H   7,C   1,C   0,H   6)     -0.00 -0.000001    0.00      0.00   
    31. D(C   2,C   1,C   0,C   5)      0.00  0.000000   -0.00      0.00   
    32. D(N   3,C   2,C   1,H   7)    180.00  0.000000   -0.00    179.99   
    33. D(H   8,C   2,C   1,C   0)    180.00  0.000002   -0.00    179.99   
    34. D(N   3,C   2,C   1,C   0)     -0.00 -0.000000    0.00     -0.00   
    35. D(H   8,C   2,C   1,H   7)     -0.00  0.000002   -0.01     -0.01   
    36. D(C   4,N   3,C   2,H   8)   -180.00 -0.000002    0.00   -179.99   
    37. D(C   4,N   3,C   2,C   1)      0.00  0.000000   -0.00      0.00   
    38. D(H   9,C   4,N   3,C   2)   -179.99  0.000001   -0.00   -179.99   
    39. D(C   5,C   4,N   3,C   2)      0.00 -0.000000    0.00      0.00   
    40. D(H  10,C   5,C   0,C   1)   -180.00 -0.000002    0.01   -179.99   
    41. D(C   4,C   5,C   0,H   6)   -179.99  0.000001   -0.00   -180.00   
    42. D(C   4,C   5,C   0,C   1)      0.00 -0.000000    0.00      0.00   
    43. D(H  10,C   5,C   4,H   9)     -0.01  0.000001   -0.00     -0.02   
    44. D(H  10,C   5,C   4,N   3)    179.99  0.000002   -0.01    179.99   
    45. D(C   0,C   5,C   4,H   9)    179.99 -0.000001    0.00    179.99   
    46. D(C   0,C   5,C   4,N   3)     -0.01  0.000000   -0.00     -0.01   
    47. D(H  10,C   5,C   0,H   6)      0.00 -0.000002    0.00      0.01   
    ----------------------------------------------------------------------------

Geometry step timings:
Preparation and reading OPT file:      0.000 s ( 4.782 %)
Internal coordinates            :      0.000 s ( 1.778 %)
B/P matrices and projection     :      0.000 s ( 8.112 %)
Hessian update/contruction      :      0.002 s (51.903 %)
Making the step                 :      0.000 s ( 7.086 %)
Converting the step to Cartesian:      0.000 s ( 1.803 %)
Storing new data                :      0.000 s ( 1.327 %)
Checking convergence            :      0.000 s ( 0.100 %)
Final printing                  :      0.001 s (22.859 %)
Total time                      :      0.004 s
                 *******************************************************
                 *** FINAL ENERGY EVALUATION AT THE STATIONARY POINT ***
                 ***               (AFTER    1 CYCLES)               ***
                 *******************************************************
---------------------------------
CARTESIAN COORDINATES (ANGSTROEM)
---------------------------------
  C     -0.383589    1.131348    0.067648
  C     -1.291963    0.070937    0.030723
  C     -0.795046   -1.232636   -0.048337
  N      0.518260   -1.528589   -0.091430
  C      1.380675   -0.494561   -0.054975
  C      0.982287    0.842378    0.023907
  H     -0.733476    2.163210    0.129340
  H     -2.368087    0.246241    0.062412
  H     -1.482334   -2.083195   -0.078680
  H      2.443440   -0.751393   -0.090889
  H      1.729835    1.636260    0.050281

----------------------------
CARTESIAN COORDINATES (A.U.)
----------------------------
  NO LB      ZA    FRAG     MASS         X           Y           Z
   0 C     6.0000    0    12.011   -0.724879    2.137938    0.127836
   1 C     6.0000    0    12.011   -2.441457    0.134052    0.058059
   2 C     6.0000    0    12.011   -1.502419   -2.329345   -0.091344
   3 N     7.0000    0    14.007    0.979369   -2.888614   -0.172778
   4 C     6.0000    0    12.011    2.609097   -0.934584   -0.103887
   5 C     6.0000    0    12.011    1.856253    1.591863    0.045178
   6 H     1.0000    0     1.008   -1.386070    4.087875    0.244416
   7 H     1.0000    0     1.008   -4.475036    0.465329    0.117942
   8 H     1.0000    0     1.008   -2.801206   -3.936669   -0.148684
   9 H     1.0000    0     1.008    4.617433   -1.419927   -0.171756
  10 H     1.0000    0     1.008    3.268914    3.092083    0.095018

--------------------------------
INTERNAL COORDINATES (ANGSTROEM)
--------------------------------
 C      0   0   0     0.000000000000     0.00000000     0.00000000
 C      1   0   0     1.396773567173     0.00000000     0.00000000
 C      2   1   0     1.397312489138   118.58591975     0.00000000
 N      3   2   1     1.346928284032   123.61022908     0.00000000
 C      4   3   2     1.346960314073   117.04836212     0.00000000
 C      1   2   3     1.396794590231   118.55831410     0.00000000
 H      1   2   3     1.091314170901   120.71823923   180.00103146
 H      2   1   3     1.090769702315   121.25339891   180.00018310
 H      3   2   1     1.093954675127   120.23145880   179.99175060
 H      5   4   3     1.093948619440   116.16112501   180.00747031
 H      6   1   2     1.090767051698   121.25461891   180.00854075

---------------------------
INTERNAL COORDINATES (A.U.)
---------------------------
 C      0   0   0     0.000000000000     0.00000000     0.00000000
 C      1   0   0     2.639519513058     0.00000000     0.00000000
 C      2   1   0     2.640537927979   118.58591975     0.00000000
 N      3   2   1     2.545325578853   123.61022908     0.00000000
 C      4   3   2     2.545386106858   117.04836212     0.00000000
 C      1   2   3     2.639559240880   118.55831410     0.00000000
 H      1   2   3     2.062284909071   120.71823923   180.00103146
 H      2   1   3     2.061256012555   121.25339891   180.00018310
 H      3   2   1     2.067274738913   120.23145880   179.99175060
 H      5   4   3     2.067263295323   116.16112501   180.00747031
 H      6   1   2     2.061251003613   121.25461891   180.00854075

---------------------
BASIS SET INFORMATION
---------------------
There are 3 groups of distinct atoms

 Group   1 Type C   : 11s6p2d1f contracted to 5s3p2d1f pattern {62111/411/11/1}
 Group   2 Type N   : 11s6p2d1f contracted to 5s3p2d1f pattern {62111/411/11/1}
 Group   3 Type H   : 5s1p contracted to 3s1p pattern {311/1}

Atom   0C    basis set group =>   1
Atom   1C    basis set group =>   1
Atom   2C    basis set group =>   1
Atom   3N    basis set group =>   2
Atom   4C    basis set group =>   1
Atom   5C    basis set group =>   1
Atom   6H    basis set group =>   3
Atom   7H    basis set group =>   3
Atom   8H    basis set group =>   3
Atom   9H    basis set group =>   3
Atom  10H    basis set group =>   3
---------------------------------
AUXILIARY/J BASIS SET INFORMATION
---------------------------------
There are 3 groups of distinct atoms

 Group   1 Type C   : 12s5p4d2f1g contracted to 6s4p3d1f1g pattern {711111/2111/211/2/1}
 Group   2 Type N   : 12s5p4d2f1g contracted to 6s4p3d1f1g pattern {711111/2111/211/2/1}
 Group   3 Type H   : 5s2p1d contracted to 3s1p1d pattern {311/2/1}

Atom   0C    basis set group =>   1
Atom   1C    basis set group =>   1
Atom   2C    basis set group =>   1
Atom   3N    basis set group =>   2
Atom   4C    basis set group =>   1
Atom   5C    basis set group =>   1
Atom   6H    basis set group =>   3
Atom   7H    basis set group =>   3
Atom   8H    basis set group =>   3
Atom   9H    basis set group =>   3
Atom  10H    basis set group =>   3


           ************************************************************
           *        Program running with 16 parallel MPI-processes    *
           *              working on a common directory               *
           ************************************************************
------------------------------------------------------------------------------
                             ORCA STARTUP CALCULATIONS
                           -- RI-GTO INTEGRALS CHOSEN --
------------------------------------------------------------------------------
------------------------------------------------------------------------------
                   ___                                                        
                  /   \      - P O W E R E D   B Y -                         
                 /     \                                                     
                 |  |  |   _    _      __       _____    __    __             
                 |  |  |  | |  | |    /  \     |  _  \  |  |  /  |          
                  \  \/   | |  | |   /    \    | | | |  |  | /  /          
                 / \  \   | |__| |  /  /\  \   | |_| |  |  |/  /          
                |  |  |   |  __  | /  /__\  \  |    /   |      \           
                |  |  |   | |  | | |   __   |  |    \   |  |\   \          
                \     /   | |  | | |  |  |  |  | |\  \  |  | \   \       
                 \___/    |_|  |_| |__|  |__|  |_| \__\ |__|  \__/        
                                                                              
                      - O R C A' S   B I G   F R I E N D -                    
                                      &                                       
                       - I N T E G R A L  F E E D E R -                       
                                                                              
 v1 FN, 2020, v2 2021, v3 2022-2024                                           
------------------------------------------------------------------------------


----------------------
SHARK INTEGRAL PACKAGE
----------------------

Number of atoms                             ...     11
Number of basis functions                   ...    216
Number of shells                            ...     86
Maximum angular momentum                    ...      3
Integral batch strategy                     ... SHARK/LIBINT Hybrid
RI-J (if used) integral strategy            ... SPLIT-RIJ (Revised 2003 algorithm where possible)
Printlevel                                  ...      1
Contraction scheme used                     ... SEGMENTED contraction
Prescreening option                         ... SCHWARTZ
   Thresh                                   ... 2.500e-11
   Tcut                                     ... 2.500e-12
   Tpresel                                  ... 2.500e-12 
Coulomb Range Separation                    ... NOT USED
Exchange Range Separation                   ... NOT USED
Multipole approximations                    ... NOT USED
Finite Nucleus Model                        ... NOT USED
CABS basis                                  ... NOT available
Auxiliary Coulomb fitting basis             ... AVAILABLE
   # of basis functions in Aux-J            ...    349
   # of shells in Aux-J                     ...    115
   Maximum angular momentum in Aux-J        ...      4
Auxiliary J/K fitting basis                 ... NOT available
Auxiliary Correlation fitting basis         ... NOT available
Auxiliary 'external' fitting basis          ... NOT available

Checking pre-screening integrals            ... done (  0.0 sec) Dimension = 86
Check shell pair data                       ... done (  0.0 sec)
Shell pair information
Shell pair cut-off parameter TPreSel        ...   2.5e-12
Total number of shell pairs                 ...      3741
Shell pairs after pre-screening             ...      3623
Total number of primitive shell pairs       ...     11472
Primitive shell pairs kept                  ...      8831
          la=0 lb=0:    957 shell pairs
          la=1 lb=0:   1001 shell pairs
          la=1 lb=1:    274 shell pairs
          la=2 lb=0:    536 shell pairs
          la=2 lb=1:    276 shell pairs
          la=2 lb=2:     78 shell pairs
          la=3 lb=0:    270 shell pairs
          la=3 lb=1:    138 shell pairs
          la=3 lb=2:     72 shell pairs
          la=3 lb=3:     21 shell pairs

Calculating one electron integrals          ... done (  0.0 sec)
Calculating RI/J V-Matrix + Cholesky decomp.... done (  0.0 sec)
Calculating Nuclear repulsion               ... done (  0.0 sec) ENN=    205.222992631023 Eh

Diagonalization of the overlap matrix:
Smallest eigenvalue                        ... 6.340e-05
Time for diagonalization                   ...    0.004 sec
Threshold for overlap eigenvalues          ... 1.000e-07
Number of eigenvalues below threshold      ... 0
Time for construction of square roots      ...    0.002 sec
Total time needed                          ...    0.007 sec

-------------------
DFT GRID GENERATION
-------------------

General Integration Accuracy     IntAcc      ... 4.388
Radial Grid Type                 RadialGrid  ... OptM3 with GC (2021)
Angular Grid (max. ang.)         AngularGrid ... 4 (Lebedev-302)
Angular grid pruning method      GridPruning ... 4 (adaptive)
Weight generation scheme         WeightScheme... mBecke (2022)
Basis function cutoff            BFCut       ... 1.0000e-11
Integration weight cutoff        WCut        ... 1.0000e-14
Partially contracted basis set               ... off
Rotationally invariant grid construction     ... off
Angular grids for H and He will be reduced by one unit

Total number of grid points                  ...    52414
Total number of batches                      ...      825
Average number of points per batch           ...       63
Average number of grid points per atom       ...     4765
Initializing property integral containers    ... done (  0.0 sec)

SHARK setup successfully completed in   0.4 seconds

Maximum memory used throughout the entire STARTUP-calculation: 17.4 MB


           ************************************************************
           *        Program running with 16 parallel MPI-processes    *
           *              working on a common directory               *
           ************************************************************
-------------------------------------------------------------------------------
                                 ORCA GUESS
                   Start orbitals & Density for SCF / CASSCF
-------------------------------------------------------------------------------

------------
SCF SETTINGS
------------
Hamiltonian:
 Density Functional     Method          .... DFT(GTOs)
 Exchange Functional    Exchange        .... B88
   X-Alpha parameter    XAlpha          ....  0.666667
   Becke's b parameter  XBeta           ....  0.004200
 Correlation Functional Correlation     .... P86
 LDA part of GGA corr.  LDAOpt          .... PW91-LDA
 Gradients option       PostSCFGGA      .... off
   NL short-range parameter             ....  4.400000
 RI-approximation to the Coulomb term is turned on
   Number of AuxJ basis functions       .... 349


General Settings:
 Integral files         IntName         .... geo_opt_tzvp
 Hartree-Fock type      HFTyp           .... RHF
 Total Charge           Charge          ....    0
 Multiplicity           Mult            ....    1
 Number of Electrons    NEL             ....   42
 Basis Dimension        Dim             ....  216
 Nuclear Repulsion      ENuc            ....    205.2229926310 Eh

Convergence Acceleration:
 AO-DIIS                CNVDIIS         .... on
   Start iteration      DIISMaxIt       ....    12
   Startup error        DIISStart       ....  0.200000
   # of expansion vecs  DIISMaxEq       ....     5
   Bias factor          DIISBfac        ....   1.050
   Max. coefficient     DIISMaxC        ....  10.000
 MO-DIIS                CNVKDIIS        .... off
 Trust-Rad. Augm. Hess. CNVTRAH         .... auto
   Auto Start mean grad. ratio tolernc. ....  1.125000
   Auto Start start iteration           ....     1
   Auto Start num. interpolation iter.  ....    10
   Max. Number of Micro iterations      ....    24
   Max. Number of Macro iterations      .... Maxiter - #DIIS iter
   Number of Davidson start vectors     ....     2
   Converg. threshold    (grad. norm)   ....   1.000e-05
   Grad. Scal. Fac. for Micro threshold ....   0.100
   Minimum threshold for Micro iter.    ....   1.000e-02
   NR start threshold (gradient norm)   ....   1.000e-04
   Initial trust radius                 ....   0.400
   Minimum AH scaling param. (alpha)    ....   1.000
   Maximum AH scaling param. (alpha)    .... 1000.000
   Quad. conv. algorithm                .... NR
   White noise on init. David. guess    .... on
   Maximum white noise                  ....   0.010
   Pseudo random numbers                .... off
   Inactive MOs                         .... canonical
   Orbital update algorithm             .... Taylor
   Preconditioner                       .... Diag
   Full preconditioner red. dimension   ....   250
 SOSCF                  CNVSOSCF        .... on
   Start iteration      SOSCFMaxIt      ....   150
   Startup grad/error   SOSCFStart      ....  0.003300
   Hessian update       SOSCFHessUp     .... L-BFGS
 Level Shifting         CNVShift        .... on
   Level shift para.    LevelShift      ....    0.2500
[...]
  31   0.0000       0.110342         3.0026 
*Only the first 10 virtual orbitals were printed.

                    ********************************
                    * MULLIKEN POPULATION ANALYSIS *
                    ********************************

-----------------------
MULLIKEN ATOMIC CHARGES
-----------------------
   0 C :   -0.320610
   1 C :   -0.342912
   2 C :   -0.274835
   3 N :   -0.573940
   4 C :   -0.274765
   5 C :   -0.342862
   6 H :    0.431018
   7 H :    0.424449
   8 H :    0.424878
   9 H :    0.424653
  10 H :    0.424924
Sum of atomic charges:    0.0000000

--------------------------------
MULLIKEN REDUCED ORBITAL CHARGES
--------------------------------
  0 C s       :     3.449956  s :     3.449956
      pz      :     0.887265  p :     2.910024
      px      :     0.885449
      py      :     1.137310
      dz2     :     0.007843  d :    -0.046089
      dxz     :    -0.014960
      dyz     :    -0.007596
      dx2y2   :    -0.006772
      dxy     :    -0.024604
      f0      :     0.001378  f :     0.006719
      f+1     :     0.000409
      f-1     :     0.000511
      f+2     :     0.000491
      f-2     :     0.000744
      f+3     :     0.001346
      f-3     :     0.001840

  1 C s       :     3.411215  s :     3.411215
      pz      :     0.992564  p :     2.932517
      px      :     1.104673
      py      :     0.835279
      dz2     :     0.004928  d :    -0.007509
      dxz     :     0.018438
      dyz     :     0.004816
      dx2y2   :    -0.008245
      dxy     :    -0.027446
      f0      :     0.001400  f :     0.006689
      f+1     :     0.000548
      f-1     :     0.000440
      f+2     :     0.000251
      f-2     :     0.000874
      f+3     :     0.001238
      f-3     :     0.001938

  2 C s       :     3.508099  s :     3.508099
      pz      :     0.887904  p :     2.704557
      px      :     0.805947
      py      :     1.010706
      dz2     :     0.009200  d :     0.052205
      dxz     :     0.029133
      dyz     :     0.003851
      dx2y2   :    -0.002434
      dxy     :     0.012455
      f0      :     0.001636  f :     0.009975
      f+1     :     0.000927
      f-1     :     0.000523
      f+2     :     0.001381
      f-2     :     0.000298
      f+3     :     0.002332
      f-3     :     0.002878

  3 N s       :     4.004667  s :     4.004667
      pz      :     1.140822  p :     3.485221
      px      :     0.987661
      py      :     1.356737
      dz2     :     0.003950  d :     0.080646
      dxz     :     0.021653
      dyz     :     0.016470
      dx2y2   :     0.019315
      dxy     :     0.019258
      f0      :     0.000559  f :     0.003406
      f+1     :     0.000264
      f-1     :     0.000181
      f+2     :     0.000352
      f-2     :     0.000454
      f+3     :     0.000708
      f-3     :     0.000888

  4 C s       :     3.508592  s :     3.508592
      pz      :     0.887949  p :     2.704237
      px      :     1.043978
      py      :     0.772311
      dz2     :     0.009156  d :     0.051961
      dxz     :     0.002473
      dyz     :     0.030499
      dx2y2   :     0.021332
      dxy     :    -0.011499
      f0      :     0.001638  f :     0.009974
      f+1     :     0.000695
      f-1     :     0.000753
      f+2     :     0.000340
      f-2     :     0.001339
      f+3     :     0.002236
      f-3     :     0.002975

  5 C s       :     3.410920  s :     3.410920
      pz      :     0.992539  p :     2.932692
      px      :     0.992905
      py      :     0.947248
      dz2     :     0.004899  d :    -0.007438
      dxz     :     0.006593
      dyz     :     0.016698
      dx2y2   :    -0.033253
      dxy     :    -0.002376
      f0      :     0.001398  f :     0.006688
      f+1     :     0.000484
      f-1     :     0.000507
      f+2     :     0.000961
      f-2     :     0.000163
      f+3     :     0.001464
      f-3     :     0.001711

  6 H s       :     0.545542  s :     0.545542
      pz      :     0.010452  p :     0.023440
      px      :     0.008703
      py      :     0.004285

  7 H s       :     0.546225  s :     0.546225
      pz      :     0.017492  p :     0.029325
      px      :     0.007956
      py      :     0.003877

  8 H s       :     0.551561  s :     0.551561
      pz      :     0.010920  p :     0.023561
      px      :    -0.001463
      py      :     0.014104

  9 H s       :     0.551798  s :     0.551798
      pz      :     0.010901  p :     0.023549
      px      :     0.003076
      py      :     0.009572

 10 H s       :     0.545743  s :     0.545743
      pz      :     0.017520  p :     0.029333
      px      :     0.008836
      py      :     0.002976



                     *******************************
                     * LOEWDIN POPULATION ANALYSIS *
                     *******************************

----------------------
LOEWDIN ATOMIC CHARGES
----------------------
   0 C :   -0.077962
   1 C :   -0.074069
   2 C :   -0.169441
   3 N :    0.011106
   4 C :   -0.169433
   5 C :   -0.074101
   6 H :    0.115499
   7 H :    0.111514
   8 H :    0.107688
   9 H :    0.107699
  10 H :    0.111501

-------------------------------
LOEWDIN REDUCED ORBITAL CHARGES
-------------------------------
  0 C s       :     2.699072  s :     2.699072
      pz      :     0.729201  p :     2.660661
      px      :     0.987101
      py      :     0.944359
      dz2     :     0.059638  d :     0.674530
      dxz     :     0.122443
      dyz     :     0.041473
      dx2y2   :     0.239584
      dxy     :     0.211392
      f0      :     0.003152  f :     0.043700
      f+1     :     0.004392
      f-1     :     0.003428
      f+2     :     0.003552
      f-2     :     0.005199
      f+3     :     0.010705
      f-3     :     0.013273

  1 C s       :     2.698094  s :     2.698094
      pz      :     0.760848  p :     2.685235
      px      :     0.939207
      py      :     0.985180
      dz2     :     0.060590  d :     0.647664
      dxz     :     0.037540
      dyz     :     0.111778
      dx2y2   :     0.266604
      dxy     :     0.171154
      f0      :     0.003236  f :     0.043076
      f+1     :     0.003473
      f-1     :     0.004616
      f+2     :     0.001951
      f-2     :     0.006164
      f+3     :     0.010394
      f-3     :     0.013242

  2 C s       :     2.700768  s :     2.700768
      pz      :     0.736424  p :     2.614495
      px      :     0.910361
      py      :     0.967711
      dz2     :     0.066370  d :     0.793946
      dxz     :     0.111908
      dyz     :     0.077970
      dx2y2   :     0.192342
      dxy     :     0.345356
      f0      :     0.004248  f :     0.060231
      f+1     :     0.006121
      f-1     :     0.004102
      f+2     :     0.009441
      f-2     :     0.001938
      f+3     :     0.014504
      f-3     :     0.019877

  3 N s       :     2.994477  s :     2.994477
      pz      :     0.955138  p :     3.388802
      px      :     1.131676
      py      :     1.301987
      dz2     :     0.056350  d :     0.587631
      dxz     :     0.119459
      dyz     :     0.036698
      dx2y2   :     0.193379
      dxy     :     0.181745
      f0      :     0.001028  f :     0.017985
      f+1     :     0.002003
      f-1     :     0.000869
      f+2     :     0.001477
      f-2     :     0.002287
      f+3     :     0.004697
      f-3     :     0.005625

  4 C s       :     2.700765  s :     2.700765
      pz      :     0.736429  p :     2.614506
      px      :     0.916620
      py      :     0.961458
      dz2     :     0.066308  d :     0.793931
      dxz     :     0.043871
      dyz     :     0.146021
      dx2y2   :     0.324882
      dxy     :     0.212848
      f0      :     0.004250  f :     0.060231
      f+1     :     0.004199
      f-1     :     0.006020
      f+2     :     0.002364
      f-2     :     0.009009
      f+3     :     0.015804
      f-3     :     0.018585

  5 C s       :     2.698085  s :     2.698085
      pz      :     0.760878  p :     2.685243
      px      :     0.967082
      py      :     0.957284
      dz2     :     0.060634  d :     0.647694
      dxz     :     0.082947
      dyz     :     0.066366
      dx2y2   :     0.164114
      dxy     :     0.273633
      f0      :     0.003233  f :     0.043079
      f+1     :     0.004008
      f-1     :     0.004084
      f+2     :     0.006771
      f-2     :     0.001346
      f+3     :     0.010941
      f-3     :     0.012694

  6 H s       :     0.690031  s :     0.690031
      pz      :     0.051831  p :     0.194471
      px      :     0.051594
      py      :     0.091046

  7 H s       :     0.691186  s :     0.691186
      pz      :     0.054544  p :     0.197301
      px      :     0.094667
      py      :     0.048090

  8 H s       :     0.698366  s :     0.698366
      pz      :     0.050510  p :     0.193946
      px      :     0.066989
      py      :     0.076447

  9 H s       :     0.698357  s :     0.698357
      pz      :     0.050522  p :     0.193945
      px      :     0.092574
      py      :     0.050849

 10 H s       :     0.691195  s :     0.691195
      pz      :     0.054536  p :     0.197304
      px      :     0.069524
      py      :     0.073245



                      *****************************
                      * MAYER POPULATION ANALYSIS *
                      *****************************

  NA   - Mulliken gross atomic population
  ZA   - Total nuclear charge
  QA   - Mulliken gross atomic charge
  VA   - Mayer's total valence
  BVA  - Mayer's bonded valence
  FA   - Mayer's free valence

  ATOM       NA         ZA         QA         VA         BVA        FA
  0 C      6.3206     6.0000    -0.3206     3.4305     3.4305     0.0000
  1 C      6.3429     6.0000    -0.3429     3.4191     3.4191     0.0000
  2 C      6.2748     6.0000    -0.2748     3.2488     3.2488     0.0000
  3 N      7.5739     7.0000    -0.5739     2.2449     2.2449     0.0000
  4 C      6.2748     6.0000    -0.2748     3.2479     3.2479    -0.0000
  5 C      6.3429     6.0000    -0.3429     3.4184     3.4184    -0.0000
  6 H      0.5690     1.0000     0.4310     0.7156     0.7156     0.0000
  7 H      0.5756     1.0000     0.4244     0.7633     0.7633     0.0000
  8 H      0.5751     1.0000     0.4249     0.6977     0.6977     0.0000
  9 H      0.5753     1.0000     0.4247     0.6979     0.6979     0.0000
 10 H      0.5751     1.0000     0.4249     0.7627     0.7627    -0.0000

  Mayer bond orders larger than 0.100000
B(  0-C ,  1-C ) :   1.3948 B(  0-C ,  5-C ) :   1.3946 B(  0-C ,  6-H ) :   0.6994 
B(  1-C ,  2-C ) :   1.4132 B(  1-C ,  5-C ) :  -0.1631 B(  1-C ,  7-H ) :   0.7272 
B(  2-C ,  3-N ) :   1.1451 B(  2-C ,  8-H ) :   0.7239 B(  3-N ,  4-C ) :   1.1443 
B(  4-C ,  5-C ) :   1.4132 B(  4-C ,  9-H ) :   0.7243 B(  5-C , 10-H ) :   0.7268 


-------
TIMINGS
-------

Total SCF time: 0 days 0 hours 0 min 4 sec 

Total time                  ....       4.106 sec
Sum of individual times     ....       4.001 sec  ( 97.5%)

SCF preparation             ....       0.766 sec  ( 18.6%)
Fock matrix formation       ....       2.837 sec  ( 69.1%)
  Startup                   ....       0.034 sec  (  1.2% of F)
  Split-RI-J                ....       0.448 sec  ( 15.8% of F)
  XC integration            ....       1.882 sec  ( 66.3% of F)
    XC Preparation          ....       0.000 sec  (  0.0% of XC)
    Basis function eval.    ....       0.163 sec  (  8.7% of XC)
    Density eval.           ....       0.145 sec  (  7.7% of XC)
    XC-Functional eval.     ....       0.023 sec  (  1.2% of XC)
    XC-Potential eval.      ....       0.284 sec  ( 15.1% of XC)
  CPCM terms                ....       0.374 sec  ( 13.2% of F)
Diagonalization             ....       0.000 sec  (  0.0%)
Density matrix formation    ....       0.056 sec  (  1.4%)
Total Energy calculation    ....       0.043 sec  (  1.1%)
Population analysis         ....       0.030 sec  (  0.7%)
Orbital Transformation      ....       0.038 sec  (  0.9%)
Orbital Orthonormalization  ....       0.000 sec  (  0.0%)
DIIS solution               ....       0.107 sec  (  2.6%)
SOSCF solution              ....       0.125 sec  (  3.0%)
Finished LeanSCF after   4.1 sec

Maximum memory used throughout the entire LEANSCF-calculation: 19.2 MB

-------------------------   --------------------
FINAL SINGLE POINT ENERGY      -248.384235529653
-------------------------   --------------------



           ************************************************************
           *        Program running with 16 parallel MPI-processes    *
           *              working on a common directory               *
           ************************************************************

------------------------------------------------------------------------------
                              ORCA PROPERTY CALCULATIONS
------------------------------------------------------------------------------

GBWName                                 ... single_point_tzvpd.gbw
Number of atoms                         ...     11
Number of basis functions               ...    267
Max core memory                         ...   2000 MB

Electric properties:
Dipole moment                           ... YES
Quadrupole moment                       ...  NO
Static polarizability (Dipole/Dipole)   ...  NO
Static polarizability (Dipole/Quad.)    ...  NO
Static polarizability (Quad./Quad.)     ...  NO
Static polarizability (Velocity)        ...  NO

Atomic electric properties:
Dipole moment                           ...  NO
Quadrupole moment                       ...  NO
Static polarizability                   ...  NO

Choice of electric origin               ... Center of mass
Position of electric origin             ...     0.132648    -0.391243    -0.023407

General magnetic properties:
Magnetizability                         ...  NO

EPR properties:
g-Tensor (aka g-matrix)                 ...  NO
Zero-Field splitting spin-orbit         ...  NO
Zero-field splitting spin-spin          ...  NO
Hyperfine couplings                     ...  NO (   0 nuclei)
Quadrupole couplings                    ...  NO (   0 nuclei)
Contact density                         ...  NO (   0 nuclei)

NMR properties:
Chemical shifts                         ...  NO (   0 nuclei)
Spin-rotation constants                 ...  NO (   0 nuclei)
Spin-spin couplings                     ...  NO (   0 nuclei,    0 pairs)

Choice of magnetic origin               ... GIAO
Position of magnetic origin             ...     0.000000     0.000000     0.000000

Properties with geometric perturbations:
SCF Hessian                             ...  NO
IR spectrum                             ...  NO
VCD spectrum                            ...  NO
X-ray spectroscopy properties:
SCF XES/XAS/RIXS spectra                ...  NO


-------------
DIPOLE MOMENT
-------------

Method             : SCF
Type of density    : Electron Density
Multiplicity       :   1
Irrep              :   0
Energy             :  -248.3842355296530400 Eh
Relativity type    : 
Basis              : AO
                                X                 Y                 Z
Electronic contribution:      0.292852136      -0.864031312      -0.051590547
Nuclear contribution   :     -0.712043358       2.100156197       0.125652814
                        -----------------------------------------
Total Dipole Moment    :     -0.419191223       1.236124885       0.074062267
                        -----------------------------------------
Magnitude (a.u.)       :      1.307368055
Magnitude (Debye)      :      3.323065507



--------------------
Rotational spectrum 
--------------------
 
Rotational constants in cm-1:             0.199651             0.192753             0.098071 
Rotational constants in MHz :          5985.395588          5778.592672          2940.088207 

Dipole components along the rotational axes: 
x,y,z [a.u.] :     1.307368     0.000456     0.000128 
x,y,z [Debye]:     3.323065     0.001158     0.000326 

 

Dipole moment calculation done in   0.0 sec 

Maximum memory used throughout the entire PROP-calculation: 11.7 MB

--------------------------------
SUGGESTED CITATIONS FOR THIS RUN
--------------------------------

Below you find a list of papers that are relevant to this ORCA run
We neither can nor want to force you to cite these papers, but we appreciate if you do
You receive ORCA, which is the product of decades of hard work by many enthusiastic individuals, for free
The only thing we kindly ask in return is that you cite our papers,
We deeply appreciate it, if you show your appreciation for ORCA by not just citing the generic ORCA reference.

Please note that relegating all ORCA citations to the supporting information does *not* help us.
SI sections are not indexed - citations you put there will not count into any citation statistics
But we need these citations in order to attract the funding resources that allow us to do what we are doing

Therefore, if you are a happy ORCA user, please consider citing a few of the papers listed below in the main body of your paper

In addition to the list printed below, the program has created the file single_point_tzvpd.bibtex that contains the list in bibtex format
You can import this file easily into all common literature databanks and citation aid programs


List of essential papers. We consider these as the minimum necessary citations

  1. Neese,F.
     Software update: the ORCA program system, version 5.0
     WIRES Comput. Molec. Sci., 2022 12(1)e1606
     doi.org/10.1002/wcms.1606

List of papers to cite with high priority. The work reported in these papers was absolutely
necessary for this run to complete.
Our perspective: the developers of density functionals and basis sets usually get cited in chemistry papers
Good! But without the algorithms to do something with them, the functionals or basis sets would not do anything.
Hence, in our opinion, the algorithm design and method developments papers are equally worthy of getting cited

  1. Neese,F.
     An improvement of the resolution of the identity approximation for the formation of the Coulomb matrix
     J. Comp. Chem., 2003 24(14)1740-1747
     doi.org/10.1002/jcc.10318
  2. Garcia-Rates,M.; Neese,F.
     Effect of the Solute Cavity on the Solvation Energy and its Derivatives within the Framework of the Gaussian Charge Scheme
     J. Comput. Chem., 2020 41 922-939
     doi.org/10.1002/jcc.26139
  3. Neese,F.
     The SHARK Integral Generation and Digestion System
     J. Comp. Chem., 2022  1-16
     doi.org/10.1002/jcc.26942

List of suggested additional citations. These are papers that are important in the 'surrounding' of 
of this run, or papers that preceded the highly important papers. If you like your results we are grateful for a citation.

  1. Neese,F.
     The ORCA program system
     WIRES Comput. Molec. Sci., 2012 2(1)73-78
     doi.org/10.1002/wcms.81
  2. Neese,F.
     Software update: the ORCA program system, version 4.0
     WIRES Comput. Molec. Sci., 2018 8(1)1-6
     doi.org/10.1002/wcms.1327
  3. Neese,F.; Wennmohs,F.; Becker,U.; Riplinger,C.
     The ORCA quantum chemistry program package
     J. Chem. Phys., 2020 152 Art. No. L224108
     doi.org/10.1063/5.0004608

List of optional additional citations

  1. Neese,F.
     Approximate second-order SCF convergence for spin unrestricted wavefunctions
     Chem. Phys. Lett., 2000 325(1-3)93-98
     doi.org/10.1016/s0009-2614(00)00662-x

Timings for individual modules:

Sum of individual times          ...        8.542 sec (=   0.142 min)
Startup calculation              ...        1.533 sec (=   0.026 min)  17.9 %
SCF iterations                   ...        5.829 sec (=   0.097 min)  68.2 %
Property calculations            ...        1.181 sec (=   0.020 min)  13.8 %



                             ****ORCA TERMINATED NORMALLY****
TOTAL RUN TIME: 0 days 0 hours 0 minutes 27 seconds 405 msec
