23
energy: -276.4791776745969969
C  -3.2379148909109601  0.8664060056974699  -0.1487119020702300
C  -2.7118406568414000  -0.5719717251082700  -0.0930097099334800
C  -1.2795126244857400  -0.7049099580862500  0.4488161146844600
C  -0.1970020940439100  -0.0741055896721100  -0.4361506766096000
C  1.2243747626833199  -0.2855002737695000  0.0978297705416500
C  2.3131199437267100  0.3428659873421700  -0.7796579137727300
C  3.7292217031924100  0.1204150939132900  -0.2410974629714000
H  -4.2827365311279797  0.8940504118121499  -0.4908141333795800
H  -3.2006338284281299  1.3395191865342400  0.8451151173770300
H  -2.6514230986118501  1.4927095978622800  -0.8363457877948099
H  -2.7589753351692901  -1.0209584663388200  -1.1003469522993301
H  -3.3847333844346599  -1.1749131370058701  0.5387964032682800
H  -1.2311754704308999  -0.2576599196343800  1.4580309961614000
H  -1.0477418478037901  -1.7758646550560799  0.5812256578524300
H  -0.2696447944234100  -0.4976953870096200  -1.4542572063210499
H  -0.3816005808453500  1.0082228046324699  -0.5435984521559000
H  1.2960895122056300  0.1300166116122500  1.1190025538694801
H  1.4188682850147600  -1.3683511309673499  0.1989246002166400
H  2.2382742278254599  -0.0693534920757800  -1.8006847491386899
H  2.1206659198150000  1.4253010866782401  -0.8757277309310000
H  3.8450083146830298  0.5520892259812400  0.7649863617403900
H  3.9628746173812601  -0.9529318942581601  -0.1682284405475700
H  4.4864378510299501  0.5826196169163500  -0.8910240528941300
