58
energy: -961.5782402728540319
C  3.5995100000000000  -1.2127900000000000  2.5276800000000001
C  3.9678399999999998  -0.8853500000000000  1.0879099999999999
C  4.3478199999999996  0.5883500000000000  0.9590700000000000
C  4.7851699999999999  0.9584500000000000  -0.4578600000000000
N  5.1255600000000001  2.3806300000000000  -0.5726200000000000
C  4.0196300000000003  3.3054500000000000  -0.7697400000000000
C  6.3719900000000003  2.7762500000000001  -0.0719800000000000
O  7.1787299999999998  1.9415000000000000  0.3483700000000000
C  6.7282799999999998  4.2700399999999998  -0.1209300000000000
C  6.1758600000000001  5.0095400000000003  1.1054800000000000
O  5.9883499999999996  4.3950199999999997  2.1585100000000002
N  5.9266600000000000  6.3833799999999998  1.0310999999999999
C  5.9480000000000004  7.1839399999999998  -0.1862100000000000
C  5.5780399999999997  7.0983900000000002  2.2697600000000002
C  4.1618199999999996  7.6853600000000002  2.3171200000000001
C  3.0604499999999999  6.6272599999999997  2.2684000000000002
C  1.6803500000000000  7.2621399999999996  2.3767499999999999
C  8.2656500000000008  4.4534200000000004  -0.1650800000000000
C  8.9161400000000004  3.8046099999999998  -1.4009400000000001
C  10.4400399999999998  3.9468299999999998  -1.3862399999999999
C  11.0753599999999999  3.2352099999999999  -2.5853899999999999
C  12.5896899999999992  3.3774199999999999  -2.5882800000000001
H  3.2967800000000000  -2.2597900000000002  2.6209699999999998
H  2.7706300000000001  -0.5850900000000000  2.8707199999999999
H  4.4522899999999996  -1.0444500000000001  3.1941000000000002
H  3.1189000000000000  -1.1145600000000000  0.4333500000000000
H  4.8027800000000003  -1.5230500000000000  0.7744799999999999
H  5.1572500000000003  0.8129700000000000  1.6638299999999999
H  3.4955699999999998  1.2116499999999999  1.2542199999999999
H  4.0001100000000003  0.7273100000000000  -1.1873000000000000
H  5.6623299999999999  0.3644800000000000  -0.7431700000000000
H  3.2151100000000001  2.8165000000000000  -1.3262499999999999
H  4.3396600000000003  4.1769400000000001  -1.3438900000000000
H  3.6505800000000002  3.6320700000000001  0.2057200000000000
H  6.3135800000000000  4.6738299999999997  -1.0446000000000000
H  6.4201600000000001  6.6781499999999996  -1.0259100000000001
H  6.4941599999999999  8.1122800000000002  0.0056600000000000
H  4.9161799999999998  7.4237000000000002  -0.4612400000000000
H  6.3003000000000000  7.9183500000000002  2.3709199999999999
H  5.7279099999999996  6.4575600000000000  3.1451699999999998
H  4.0206200000000001  8.4058200000000003  1.5031500000000000
H  4.0634199999999998  8.2543699999999998  3.2513000000000001
H  3.1915300000000002  5.9139600000000003  3.0901500000000000
H  3.1200600000000001  6.0635599999999998  1.3314100000000000
H  1.5668700000000000  7.8003499999999999  3.3236599999999998
H  0.9026000000000000  6.4935000000000000  2.3296500000000000
H  1.5076600000000000  7.9696800000000003  1.5590800000000000
H  8.7143700000000006  4.0338399999999996  0.7446500000000000
H  8.5082900000000006  5.5235799999999999  -0.1615800000000000
H  8.5097400000000007  4.2603999999999997  -2.3118300000000001
H  8.6738599999999995  2.7375200000000000  -1.4480700000000000
H  10.8425399999999996  3.5204900000000001  -0.4586500000000000
H  10.7109500000000004  5.0091500000000000  -1.3999299999999999
H  10.6751400000000007  3.6443599999999998  -3.5183499999999999
H  10.8204600000000006  2.1685800000000000  -2.5626600000000002
H  12.8828499999999995  4.4316599999999999  -2.6363200000000000
H  13.0180799999999994  2.8677600000000001  -3.4561199999999999
H  13.0298099999999994  2.9404699999999999  -1.6855000000000000
