
                                 *****************
                                 * O   R   C   A *
                                 *****************

                                            #,                                       
                                            ###                                      
                                            ####                                     
                                            #####                                    
                                            ######                                   
                                           ########,                                 
                                     ,,################,,,,,                         
                               ,,#################################,,                 
                          ,,##########################################,,             
                       ,#########################################, ''#####,          
                    ,#############################################,,   '####,        
                  ,##################################################,,,,####,       
                ,###########''''           ''''###############################       
              ,#####''   ,,,,##########,,,,          '''####'''          '####       
            ,##' ,,,,###########################,,,                        '##       
           ' ,,###''''                  '''############,,,                           
         ,,##''                                '''############,,,,        ,,,,,,###''
      ,#''                                            '''#######################'''  
     '                                                          ''''####''''         
             ,#######,   #######,   ,#######,      ##                                
            ,#'     '#,  ##    ##  ,#'     '#,    #''#        ,####,   ,####,        
            ##       ##  ##   ,#'  ##            #'  '#       #'       #'  '#        
            ##       ##  #######   ##           ,######,      #####,   #    #        
            '#,     ,#'  ##    ##  '#,     ,#' ,#      #,     #,   #   #,  ,#        
             '#######'   ##     ##  '#######'  #'      '#     '####' # '####'        



                #########################################################
                #                        -***-                          #
                #          Department of theory and spectroscopy        #
                #                                                       #
                #                      Frank Neese                      #
                #                                                       #
                #     Directorship, Architecture, Infrastructure        #
                #                    SHARK, DRIVERS                     #
                #        Core code/Algorithms in most modules           #
                #                                                       #
                #        Max Planck Institute fuer Kohlenforschung      #
                #                Kaiser Wilhelm Platz 1                 #
                #                 D-45470 Muelheim/Ruhr                 #
                #                      Germany                          #
                #                                                       #
                #                  All rights reserved                  #
                #                        -***-                          #
                #########################################################


                         Program Version 6.0.0  -   RELEASE  -


 With contributions from (in alphabetic order):
   Daniel Aravena         : Magnetic Suceptibility
   Michael Atanasov       : Ab Initio Ligand Field Theory (pilot matlab implementation)
   Alexander A. Auer      : GIAO ZORA, VPT2 properties, NMR spectrum
   Ute Becker             : All parallelization in ORCA, NUMFREQ, NUMCALC
   Giovanni Bistoni       : ED, misc. LED, open-shell LED, HFLD
   Martin Brehm           : Molecular dynamics
   Dmytro Bykov           : pre 5.0 version of the SCF Hessian
   Marcos Casanova-Páez   : Triplet and SCS-CIS(D). UHF-(DLPNO)-IP/EA/STEOM-CCSD. UHF-CVS-IP/STEOM-CCSD
   Vijay G. Chilkuri      : MRCI spin determinant printing, contributions to CSF-ICE
   Pauline Colinet        : FMM embedding
   Dipayan Datta          : RHF DLPNO-CCSD density
   Achintya Kumar Dutta   : EOM-CC, STEOM-CC
   Nicolas Foglia         : Exact transition moments, OPA infrastructure, MCD improvements
   Dmitry Ganyushin       : Spin-Orbit,Spin-Spin,Magnetic field MRCI
   Miquel Garcia          : C-PCM and meta-GGA Hessian, CCSD/C-PCM, Gaussian charge scheme
   Tiago L. C. Gouveia    : GS-ROHF, GS-ROCIS
   Yang Guo               : DLPNO-NEVPT2, F12-NEVPT2, CIM, IAO-localization
   Andreas Hansen         : Spin unrestricted coupled pair/coupled cluster methods
   Ingolf Harden          : AUTO-CI MPn and infrastructure 
   Benjamin Helmich-Paris : MC-RPA, TRAH-(SCF,CASSCF), AVAS, COSX integrals, SCF dyn. polar.
   Lee Huntington         : MR-EOM, pCC
   Robert Izsak           : Overlap fitted RIJCOSX, COSX-SCS-MP3, EOM
   Riya Kayal             : Wick's Theorem for AUTO-CI, AUTO-CI UHF-CCSDT
   Emily Kempfer          : AUTO-CI, RHF CISDT and CCSDT
   Christian Kollmar      : KDIIS, OOCD, Brueckner-CCSD(T), CCSD density, CASPT2, CASPT2-K, improved NEVPT2
   Axel Koslowski         : Symmetry handling
   Simone Kossmann        : Meta GGA functionals, TD-DFT gradient, OOMP2, (MP2 Hessian; deprecated post 5.0)
   Lucas Lang             : DCDCAS
   Marvin Lechner         : AUTO-CI (C++ implementation), FIC-MRCC
   Spencer Leger          : CASSCF response
   Dagmar Lenk            : GEPOL surface, SMD, ORCA-2-JSON
   Dimitrios Liakos       : Extrapolation schemes; Compound Job, initial MDCI parallelization
   Dimitrios Manganas     : Further ROCIS development; embedding schemes. LFT, Crystal Embedding
   Dimitrios Pantazis     : SARC Basis sets
   Anastasios Papadopoulos: AUTO-CI, single reference methods and gradients
   Taras Petrenko         : pre 6.0 DFT Hessian and TD-DFT gradient, (ASA, deprecated), ECA, 1-Electron XAS/XES, NRVS
   Peter Pinski           : DLPNO-MP2, DLPNO-MP2 Gradient
   Christoph Reimann      : Effective Core Potentials
   Marius Retegan         : Local ZFS, SOC
   Christoph Riplinger    : Optimizer, TS searches, QM/MM, DLPNO-CCSD(T), (RO)-DLPNO pert. Triples
   Michael Roemelt        : Original ROCIS implementation
   Masaaki Saitow         : Open-shell DLPNO-CCSD energy and density
   Barbara Sandhoefer     : DKH picture change effects
   Kantharuban Sivalingam : CASSCF convergence/infrastructure, NEVPT2 and variants, FIC-MRCI
   Bernardo de Souza      : ESD, SOC TD-DFT
   Georgi Stoychev        : AutoAux, RI-MP2 NMR, DLPNO-MP2 response, X2C
   Van Anh Tran           : RI-MP2 g-tensors
   Willem Van den Heuvel  : Paramagnetic NMR
   Zikuan Wang            : NOTCH, Electric field optimization 
   Frank Wennmohs         : Technical directorship and infrastructure
   Hang Xu                : AUTO-CI-Response properties 


 We gratefully acknowledge several colleagues who have allowed us to
 interface, adapt or use parts of their codes:
   Stefan Grimme, W. Hujo, H. Kruse, P. Pracht,  : VdW corrections, initial TS optimization,
                  C. Bannwarth, S. Ehlert,         DFT functionals, gCP, sTDA/sTD-DF
                  L. Wittmann, M. Mueller
   Ed Valeev, F. Pavosevic, A. Kumar             : LibInt (2-el integral package), F12 methods
   Garnet Chan, S. Sharma, J. Yang, R. Olivares  : DMRG
   Ulf Ekstrom                                   : XCFun DFT Library
   Mihaly Kallay                                 : mrcc  (arbitrary order and MRCC methods)
   Frank Weinhold                                : gennbo (NPA and NBO analysis)
   Simon Mueller                                 : openCOSMO-RS
   Christopher J. Cramer and Donald G. Truhlar   : smd solvation model
   Lars Goerigk                                  : TD-DFT with DH, B97 family of functionals
   V. Asgeirsson, H. Jonsson                     : NEB implementation
   FAccTs GmbH                                   : IRC, NEB, NEB-TS, DLPNO-Multilevel, CI-OPT
                                                   MM, QMMM, 2- and 3-layer-ONIOM, Crystal-QMMM,
                                                   LR-CPCM, SF, NACMEs, symmetry and pop. for TD-DFT,
                                                   nearIR, NL-DFT gradient (VV10), updates on ESD,
                                                   ML-optimized integration grids, MBIS, APM,
                                                   GOAT, DOCKER, SOLVATOR, interface openCOSMO-RS
   S Lehtola, MJT Oliveira, MAL Marques          : LibXC Library
   Liviu Ungur et al                             : ANISO software


 Your calculation uses the libint2 library for the computation of 2-el integrals
 For citations please refer to: http://libint.valeyev.net

 Your ORCA version has been built with support for libXC version: 6.2.2
 For citations please refer to: https://libxc.gitlab.io

 This ORCA versions uses:
   CBLAS   interface :  Fast vector & matrix operations
   LAPACKE interface :  Fast linear algebra routines
   SCALAPACK package :  Parallel linear algebra routines
   Shared memory     :  Shared parallel matrices
   BLAS/LAPACK       :  OpenBLAS 0.3.27  USE64BITINT DYNAMIC_ARCH NO_AFFINITY Zen SINGLE_THREADED
        Core in use  :  Zen
   Copyright (c) 2011-2014, The OpenBLAS Project


NOTE: MaxCore=2000 MB was set to SCF,MP2,MDCI,CIPSI,MRCI and CIS
      => If you want to overwrite this, your respective input block should be placed after the MaxCore statement


***************************************
The coordinates will be read from file: DMDBP_SP_c000.xyz
***************************************


Warning: RI is on but no J-basis has been assigned. Assigning Def2/J (nothing to worry about!)
================================================================================

----- Orbital basis set information -----
Your calculation utilizes the basis: def2-TZVPD
   F. Weigend and R. Ahlrichs, Phys. Chem. Chem. Phys. 7, 3297 (2005).
   D. Rappoport and F. Furche, J. Chem. Phys. 133, 134105 (2010)
   D. Rappoport, J. Chem. Phys. 155, 124102 (2021).

----- AuxJ basis set information -----
Your calculation utilizes the auxiliary basis: def2/J
   F. Weigend, Phys. Chem. Chem. Phys. 8, 1057 (2006).

================================================================================
                                        WARNINGS
                       Please study these warnings very carefully!
================================================================================


================================================================================
                                       INPUT FILE
================================================================================
NAME = input.dat
|  1> %MaxCore 2000
|  2> 
|  3> %base "single_point_tzvpd"
|  4> 
|  5> %cpcm
|  6> radius[1]  1.3
|  7> radius[2]  1.601
|  8> radius[5]  2.048
|  9> radius[6]  2.0
| 10> radius[7]  1.83
| 11> radius[8]  1.72
| 12> radius[9]  1.72
| 13> radius[10]  1.771
| 14> radius[13]  2.152
| 15> radius[14]  2.2
| 16> radius[15]  2.106
| 17> radius[16]  2.16
| 18> radius[17]  2.05
| 19> radius[18]  2.184
| 20> radius[22]  2.261
| 21> radius[26]  2.195
| 22> radius[27]  2.153
| 23> radius[31]  2.172
| 24> radius[32]  2.7
| 25> radius[33]  2.148
| 26> radius[34]  2.2
| 27> radius[35]  2.16
| 28> radius[36]  2.354
| 29> radius[49]  2.245
| 30> radius[50]  2.55
| 31> radius[51]  2.402
| 32> radius[53]  2.32
| 33> radius[54]  2.524
| 34> radius[80]  1.978
| 35> radius[82]  2.36
| 36> radius[86]  2.573
| 37> cut_area 0.03571064825863687
| 38> end
| 39> 
| 40> ! CPCM BP86 def2-TZVPD SP PAL64
| 41> 
| 42> %base "single_point_tzvpd"
| 43> 
| 44> * xyzfile 0 1 DMDBP_SP_c000.xyz
| 45> 
| 46>                          ****END OF INPUT****
================================================================================

                       ****************************
                       * Single Point Calculation *
                       ****************************

---------------------------------
CARTESIAN COORDINATES (ANGSTROEM)
---------------------------------
  C      3.599510   -1.212790    2.527680
  C      3.967840   -0.885350    1.087910
  C      4.347820    0.588350    0.959070
  C      4.785170    0.958450   -0.457860
  N      5.125560    2.380630   -0.572620
  C      4.019630    3.305450   -0.769740
  C      6.371990    2.776250   -0.071980
  O      7.178730    1.941500    0.348370
  C      6.728280    4.270040   -0.120930
  C      6.175860    5.009540    1.105480
  O      5.988350    4.395020    2.158510
  N      5.926660    6.383380    1.031100
  C      5.948000    7.183940   -0.186210
  C      5.578040    7.098390    2.269760
  C      4.161820    7.685360    2.317120
  C      3.060450    6.627260    2.268400
  C      1.680350    7.262140    2.376750
  C      8.265650    4.453420   -0.165080
  C      8.916140    3.804610   -1.400940
  C     10.440040    3.946830   -1.386240
  C     11.075360    3.235210   -2.585390
  C     12.589690    3.377420   -2.588280
  H      3.296780   -2.259790    2.620970
  H      2.770630   -0.585090    2.870720
  H      4.452290   -1.044450    3.194100
  H      3.118900   -1.114560    0.433350
  H      4.802780   -1.523050    0.774480
  H      5.157250    0.812970    1.663830
  H      3.495570    1.211650    1.254220
  H      4.000110    0.727310   -1.187300
  H      5.662330    0.364480   -0.743170
  H      3.215110    2.816500   -1.326250
  H      4.339660    4.176940   -1.343890
  H      3.650580    3.632070    0.205720
  H      6.313580    4.673830   -1.044600
  H      6.420160    6.678150   -1.025910
  H      6.494160    8.112280    0.005660
  H      4.916180    7.423700   -0.461240
  H      6.300300    7.918350    2.370920
  H      5.727910    6.457560    3.145170
  H      4.020620    8.405820    1.503150
  H      4.063420    8.254370    3.251300
  H      3.191530    5.913960    3.090150
  H      3.120060    6.063560    1.331410
  H      1.566870    7.800350    3.323660
  H      0.902600    6.493500    2.329650
  H      1.507660    7.969680    1.559080
  H      8.714370    4.033840    0.744650
  H      8.508290    5.523580   -0.161580
  H      8.509740    4.260400   -2.311830
  H      8.673860    2.737520   -1.448070
  H     10.842540    3.520490   -0.458650
  H     10.710950    5.009150   -1.399930
  H     10.675140    3.644360   -3.518350
  H     10.820460    2.168580   -2.562660
  H     12.882850    4.431660   -2.636320
  H     13.018080    2.867760   -3.456120
  H     13.029810    2.940470   -1.685500

----------------------------
CARTESIAN COORDINATES (A.U.)
----------------------------
  NO LB      ZA    FRAG     MASS         X           Y           Z
   0 C     6.0000    0    12.011    6.802088   -2.291841    4.776623
   1 C     6.0000    0    12.011    7.498131   -1.673069    2.055852
   2 C     6.0000    0    12.011    8.216189    1.111820    1.812380
   3 C     6.0000    0    12.011    9.042661    1.811208   -0.865230
   4 N     7.0000    0    14.007    9.685905    4.498739   -1.082095
   5 C     6.0000    0    12.011    7.596000    6.246395   -1.454598
   6 C     6.0000    0    12.011   12.041316    5.246352   -0.136022
   7 O     8.0000    0    15.999   13.565834    3.668903    0.658324
   8 C     6.0000    0    12.011   12.714607    8.069206   -0.228525
   9 C     6.0000    0    12.011   11.670684    9.466659    2.089054
  10 O     8.0000    0    15.999   11.316341    8.305384    4.078993
  11 N     7.0000    0    14.007   11.199764   12.062840    1.948497
  12 C     6.0000    0    12.011   11.240091   13.575679   -0.351886
  13 C     6.0000    0    12.011   10.540968   13.414013    4.289225
  14 C     6.0000    0    12.011    7.864700   14.523226    4.378722
  15 C     6.0000    0    12.011    5.783412   12.523706    4.286655
  16 C     6.0000    0    12.011    3.175401   13.723456    4.491407
  17 C     6.0000    0    12.011   15.619815    8.415744   -0.311956
  18 C     6.0000    0    12.011   16.849063    7.189671   -2.647393
  19 C     6.0000    0    12.011   19.728816    7.458428   -2.619614
  20 C     6.0000    0    12.011   20.929397    6.113661   -4.885679
  21 C     6.0000    0    12.011   23.791066    6.382399   -4.891140
  22 H     1.0000    0     1.008    6.230011   -4.270384    4.952916
  23 H     1.0000    0     1.008    5.235732   -1.105660    5.424875
  24 H     1.0000    0     1.008    8.413609   -1.973724    6.035974
  25 H     1.0000    0     1.008    5.893867   -2.106213    0.818913
  26 H     1.0000    0     1.008    9.075939   -2.878147    1.463555
  27 H     1.0000    0     1.008    9.745790    1.536291    3.144183
  28 H     1.0000    0     1.008    6.605670    2.289687    2.370132
  29 H     1.0000    0     1.008    7.559112    1.374417   -2.243672
  30 H     1.0000    0     1.008   10.700253    0.688767   -1.404388
  31 H     1.0000    0     1.008    6.075677    5.322414   -2.506249
  32 H     1.0000    0     1.008    8.200769    7.893273   -2.539584
  33 H     1.0000    0     1.008    6.898596    6.863618    0.388754
  34 H     1.0000    0     1.008   11.930937    8.832259   -1.974008
  35 H     1.0000    0     1.008   12.132344   12.619875   -1.938689
  36 H     1.0000    0     1.008   12.272184   15.329988    0.010696
  37 H     1.0000    0     1.008    9.290234   14.028760   -0.871617
  38 H     1.0000    0     1.008   11.905842   14.963513    4.480389
  39 H     1.0000    0     1.008   10.824181   12.203020    5.943510
  40 H     1.0000    0     1.008    7.597871   15.884698    2.840542
  41 H     1.0000    0     1.008    7.678751   15.598499    6.144067
  42 H     1.0000    0     1.008    6.031118   11.175765    5.839537
  43 H     1.0000    0     1.008    5.896059   11.458468    2.516000
  44 H     1.0000    0     1.008    2.960955   14.740525    6.280807
  45 H     1.0000    0     1.008    1.705667   12.270937    4.402400
  46 H     1.0000    0     1.008    2.849065   15.060513    2.946234
  47 H     1.0000    0     1.008   16.467773    7.622853    1.407185
  48 H     1.0000    0     1.008   16.078338   10.438053   -0.305342
  49 H     1.0000    0     1.008   16.081078    8.050989   -4.368726
  50 H     1.0000    0     1.008   16.391220    5.173163   -2.736456
  51 H     1.0000    0     1.008   20.489431    6.652762   -0.866723
  52 H     1.0000    0     1.008   20.240762    9.465922   -2.645484
  53 H     1.0000    0     1.008   20.173091    6.886842   -6.648718
  54 H     1.0000    0     1.008   20.447706    4.098022   -4.842726
  55 H     1.0000    0     1.008   24.345058    8.374624   -4.981923
  56 H     1.0000    0     1.008   24.600606    5.419281   -6.531120
  57 H     1.0000    0     1.008   24.622772    5.556683   -3.185133

--------------------------------
INTERNAL COORDINATES (ANGSTROEM)
--------------------------------
 C      0   0   0     0.000000000000     0.00000000     0.00000000
 C      1   0   0     1.521782374520     0.00000000     0.00000000
 C      2   1   0     1.527342867859   110.34283565     0.00000000
 C      3   2   1     1.528378113361   112.52226422   177.54531861
 N      4   3   2     1.466843946062   111.94481874   179.04592201
 C      5   4   3     1.455070270365   116.77290691   277.37731362
 C      5   4   3     1.400265453012   116.90544231    77.61235824
 O      7   5   4     1.234638049227   120.81986112     5.44122908
 C      7   5   4     1.536472333204   118.01519772   182.72686491
 C      9   7   5     1.534962408172   111.06815456    85.30541524
 O     10   9   7     1.233558677729   119.78569908    26.41045465
 N     10   9   7     1.398237951852   119.66997262   204.52122831
 C     12  10   9     1.457118850781   125.56715869    10.02673411
 C     12  10   9     1.472091641203   118.33863512   188.40402924
 C     14  12  10     1.533771768843   115.50124759   245.09189906
 C     15  14  12     1.528059267601   113.54948663    63.86358800
 C     16  15  14     1.522986653553   111.23638496   177.63617355
 C      9   7   5     1.548897660854   110.25357331   206.03839527
 C     18   9   7     1.539948569206   113.09521690    60.73352722
 C     19  18   9     1.530592639601   111.94443910   182.56321045
 C     20  19  18     1.532316954582   111.23125689   177.13530730
 C     21  20  19     1.520995524352   111.76883403   179.58849743
 H      1   2   3     1.093872696889   110.70895415   178.26750831
 H      1   2   3     1.094863364078   110.87383715    58.15319844
 H      1   2   3     1.095302561122   110.74004662   298.15643206
 H      2   1   3     1.096214003423   109.42047800   238.68234803
 H      2   1   3     1.096368760272   109.24726374   121.47810978
 H      3   2   1     1.096502497444   109.09221868    55.72022782
 H      3   2   1     1.096333195247   109.41799639   299.54879799
 H      4   3   2     1.096278986755   111.15460451    57.43478718
 H      4   3   2     1.097092440317   109.80274715   299.75330668
 H      6   5   4     1.093630610855   110.11466279   329.09096935
 H      6   5   4     1.091587029742   110.84584687   209.94874641
 H      6   5   4     1.092886425252   109.00755956    89.65100763
 H      9   7   5     1.090040697864   107.39279176   323.51598253
 H     13  12  10     1.088050862644   113.30906364   345.48192165
 H     13  12  10     1.094038389683   109.08665842   224.82351151
 H     13  12  10     1.094430843361   108.45110491   105.98979494
 H     14  12  10     1.097372887764   106.53626477   124.41321883
 H     14  12  10     1.095201704664   110.85213355     9.68335198
 H     15  14  12     1.096151090179   110.33724966   300.12108614
 H     15  14  12     1.098247336669   107.89501193   184.46374265
 H     16  15  14     1.096016386237   109.91016257    56.76433121
 H     16  15  14     1.095107895232   110.15002526   298.54997287
 H     17  16  15     1.095073633415   111.11892194   299.16407405
 H     17  16  15     1.094495738731   110.37212191   179.39720431
 H     17  16  15     1.094997222188   111.04784256    59.61236185
 H     18   9   7     1.097727510678   109.68530296   298.37741330
 H     18   9   7     1.097328048124   109.56311112   182.11835903
 H     19  18   9     1.096643094265   109.56940497    60.53510522
 H     19  18   9     1.095263394531   110.58369036   303.20542758
 H     20  19  18     1.097358306890   109.70663702    56.20015651
 H     20  19  18     1.096404773156   109.62841331   298.68629637
 H     21  20  19     1.094529183028   109.98936527    58.22279249
 H     21  20  19     1.096900277965   109.81757890   300.44100738
 H     22  21  20     1.095295670036   110.88892851   300.00861986
 H     22  21  20     1.093808746217   110.35743530   180.39033885
 H     22  21  20     1.095281993507   111.17425269    60.44825666

---------------------------
INTERNAL COORDINATES (A.U.)
---------------------------
 C      0   0   0     0.000000000000     0.00000000     0.00000000
 C      1   0   0     2.875751923271     0.00000000     0.00000000
 C      2   1   0     2.886259732852   110.34283565     0.00000000
 C      3   2   1     2.888216063331   112.52226422   177.54531861
 N      4   3   2     2.771933339258   111.94481874   179.04592201
 C      5   4   3     2.749684316601   116.77290691   277.37731362
 C      5   4   3     2.646118220985   116.90544231    77.61235824
 O      7   5   4     2.333127787559   120.81986112     5.44122908
 C      7   5   4     2.903511922102   118.01519772   182.72686491
 C      9   7   5     2.900658577309   111.06815456    85.30541524
 O     10   9   7     2.331088071029   119.78569908    26.41045465
 N     10   9   7     2.642286799056   119.66997262   204.52122831
 C     12  10   9     2.753555572549   125.56715869    10.02673411
 C     12  10   9     2.781850045909   118.33863512   188.40402924
 C     14  12  10     2.898408595053   115.50124759   245.09189906
 C     15  14  12     2.887613532165   113.54948663    63.86358800
 C     16  15  14     2.878027680832   111.23638496   177.63617355
 C      9   7   5     2.926992388486   110.25357331   206.03839527
 C     18   9   7     2.910081056123   113.09521690    60.73352722
 C     19  18   9     2.892400911441   111.94443910   182.56321045
 C     20  19  18     2.895659394525   111.23125689   177.13530730
 C     21  20  19     2.874264991946   111.76883403   179.58849743
 H      1   2   3     2.067119822495   110.70895415   178.26750831
 H      1   2   3     2.068991912171   110.87383715    58.15319844
 H      1   2   3     2.069821874303   110.74004662   298.15643206
 H      2   1   3     2.071544250638   109.42047800   238.68234803
 H      2   1   3     2.071836698701   109.24726374   121.47810978
 H      3   2   1     2.072089425329   109.09221868    55.72022782
 H      3   2   1     2.071769490543   109.41799639   299.54879799
 H      4   3   2     2.071667051339   111.15460451    57.43478718
 H      4   3   2     2.073204255794   109.80274715   299.75330668
 H      6   5   4     2.066662346190   110.11466279   329.09096935
 H      6   5   4     2.062800537552   110.84584687   209.94874641
 H      6   5   4     2.065256039206   109.00755956    89.65100763
 H      9   7   5     2.059878393792   107.39279176   323.51598253
 H     13  12  10     2.056118150174   113.30906364   345.48192165
 H     13  12  10     2.067432936497   109.08665842   224.82351151
 H     13  12  10     2.068174566469   108.45110491   105.98979494
 H     14  12  10     2.073734224665   106.53626477   124.41321883
 H     14  12  10     2.069631283220   110.85213355     9.68335198
 H     15  14  12     2.071425361837   110.33724966   300.12108614
 H     15  14  12     2.075386693612   107.89501193   184.46374265
 H     16  15  14     2.071170808278   109.91016257    56.76433121
 H     16  15  14     2.069454009084   110.15002526   298.54997287
 H     17  16  15     2.069389263632   111.11892194   299.16407405
 H     17  16  15     2.068297200945   110.37212191   179.39720431
 H     17  16  15     2.069244867340   111.04784256    59.61236185
 H     18   9   7     2.074404364853   109.68530296   298.37741330
 H     18   9   7     2.073649490025   109.56311112   182.11835903
 H     19  18   9     2.072355114818   109.56940497    60.53510522
 H     19  18   9     2.069747860173   110.58369036   303.20542758
 H     20  19  18     2.073706670805   109.70663702    56.20015651
 H     20  19  18     2.071904753190   109.62841331   298.68629637
 H     21  20  19     2.068360401508   109.98936527    58.22279249
 H     21  20  19     2.072841121576   109.81757890   300.44100738
 H     22  21  20     2.069808852038   110.88892851   300.00861986
 H     22  21  20     2.066998973237   110.35743530   180.39033885
 H     22  21  20     2.069783007143   111.17425269    60.44825666

---------------------
BASIS SET INFORMATION
---------------------
There are 4 groups of distinct atoms

 Group   1 Type C   : 12s6p3d1f contracted to 6s3p3d1f pattern {621111/411/111/1}
 Group   2 Type N   : 12s6p3d1f contracted to 6s3p3d1f pattern {621111/411/111/1}
 Group   3 Type O   : 12s7p3d1f contracted to 6s4p3d1f pattern {621111/4111/111/1}
 Group   4 Type H   : 5s2p contracted to 3s2p pattern {311/11}

Atom   0C    basis set group =>   1
Atom   1C    basis set group =>   1
Atom   2C    basis set group =>   1
Atom   3C    basis set group =>   1
Atom   4N    basis set group =>   2
Atom   5C    basis set group =>   1
Atom   6C    basis set group =>   1
Atom   7O    basis set group =>   3
Atom   8C    basis set group =>   1
Atom   9C    basis set group =>   1
Atom  10O    basis set group =>   3
Atom  11N    basis set group =>   2
Atom  12C    basis set group =>   1
Atom  13C    basis set group =>   1
Atom  14C    basis set group =>   1
Atom  15C    basis set group =>   1
Atom  16C    basis set group =>   1
Atom  17C    basis set group =>   1
Atom  18C    basis set group =>   1
Atom  19C    basis set group =>   1
Atom  20C    basis set group =>   1
Atom  21C    basis set group =>   1
Atom  22H    basis set group =>   4
Atom  23H    basis set group =>   4
Atom  24H    basis set group =>   4
Atom  25H    basis set group =>   4
Atom  26H    basis set group =>   4
Atom  27H    basis set group =>   4
Atom  28H    basis set group =>   4
Atom  29H    basis set group =>   4
Atom  30H    basis set group =>   4
Atom  31H    basis set group =>   4
Atom  32H    basis set group =>   4
Atom  33H    basis set group =>   4
Atom  34H    basis set group =>   4
Atom  35H    basis set group =>   4
Atom  36H    basis set group =>   4
Atom  37H    basis set group =>   4
Atom  38H    basis set group =>   4
Atom  39H    basis set group =>   4
Atom  40H    basis set group =>   4
Atom  41H    basis set group =>   4
Atom  42H    basis set group =>   4
Atom  43H    basis set group =>   4
Atom  44H    basis set group =>   4
Atom  45H    basis set group =>   4
Atom  46H    basis set group =>   4
Atom  47H    basis set group =>   4
Atom  48H    basis set group =>   4
Atom  49H    basis set group =>   4
Atom  50H    basis set group =>   4
Atom  51H    basis set group =>   4
Atom  52H    basis set group =>   4
Atom  53H    basis set group =>   4
Atom  54H    basis set group =>   4
Atom  55H    basis set group =>   4
Atom  56H    basis set group =>   4
Atom  57H    basis set group =>   4
---------------------------------
AUXILIARY/J BASIS SET INFORMATION
---------------------------------
There are 4 groups of distinct atoms

 Group   1 Type C   : 12s5p4d2f1g contracted to 6s4p3d1f1g pattern {711111/2111/211/2/1}
 Group   2 Type N   : 12s5p4d2f1g contracted to 6s4p3d1f1g pattern {711111/2111/211/2/1}
 Group   3 Type O   : 12s5p4d2f1g contracted to 6s4p3d1f1g pattern {711111/2111/211/2/1}
 Group   4 Type H   : 5s2p1d contracted to 3s1p1d pattern {311/2/1}

Atom   0C    basis set group =>   1
Atom   1C    basis set group =>   1
Atom   2C    basis set group =>   1
Atom   3C    basis set group =>   1
Atom   4N    basis set group =>   2
Atom   5C    basis set group =>   1
Atom   6C    basis set group =>   1
Atom   7O    basis set group =>   3
Atom   8C    basis set group =>   1
Atom   9C    basis set group =>   1
Atom  10O    basis set group =>   3
Atom  11N    basis set group =>   2
Atom  12C    basis set group =>   1
Atom  13C    basis set group =>   1
Atom  14C    basis set group =>   1
Atom  15C    basis set group =>   1
Atom  16C    basis set group =>   1
Atom  17C    basis set group =>   1
Atom  18C    basis set group =>   1
Atom  19C    basis set group =>   1
Atom  20C    basis set group =>   1
Atom  21C    basis set group =>   1
Atom  22H    basis set group =>   4
Atom  23H    basis set group =>   4
Atom  24H    basis set group =>   4
Atom  25H    basis set group =>   4
Atom  26H    basis set group =>   4
Atom  27H    basis set group =>   4
Atom  28H    basis set group =>   4
Atom  29H    basis set group =>   4
Atom  30H    basis set group =>   4
Atom  31H    basis set group =>   4
Atom  32H    basis set group =>   4
Atom  33H    basis set group =>   4
Atom  34H    basis set group =>   4
Atom  35H    basis set group =>   4
Atom  36H    basis set group =>   4
Atom  37H    basis set group =>   4
Atom  38H    basis set group =>   4
Atom  39H    basis set group =>   4
Atom  40H    basis set group =>   4
Atom  41H    basis set group =>   4
Atom  42H    basis set group =>   4
Atom  43H    basis set group =>   4
Atom  44H    basis set group =>   4
Atom  45H    basis set group =>   4
Atom  46H    basis set group =>   4
Atom  47H    basis set group =>   4
Atom  48H    basis set group =>   4
Atom  49H    basis set group =>   4
Atom  50H    basis set group =>   4
Atom  51H    basis set group =>   4
Atom  52H    basis set group =>   4
Atom  53H    basis set group =>   4
Atom  54H    basis set group =>   4
Atom  55H    basis set group =>   4
Atom  56H    basis set group =>   4
Atom  57H    basis set group =>   4


           ************************************************************
           *        Program running with 64 parallel MPI-processes    *
           *              working on a common directory               *
           ************************************************************
------------------------------------------------------------------------------
                             ORCA STARTUP CALCULATIONS
                           -- RI-GTO INTEGRALS CHOSEN --
------------------------------------------------------------------------------
------------------------------------------------------------------------------
                   ___                                                        
                  /   \      - P O W E R E D   B Y -                         
                 /     \                                                     
                 |  |  |   _    _      __       _____    __    __             
                 |  |  |  | |  | |    /  \     |  _  \  |  |  /  |          
                  \  \/   | |  | |   /    \    | | | |  |  | /  /          
                 / \  \   | |__| |  /  /\  \   | |_| |  |  |/  /          
                |  |  |   |  __  | /  /__\  \  |    /   |      \           
                |  |  |   | |  | | |   __   |  |    \   |  |\   \          
                \     /   | |  | | |  |  |  |  | |\  \  |  | \   \       
                 \___/    |_|  |_| |__|  |__|  |_| \__\ |__|  \__/        
                                                                              
                      - O R C A' S   B I G   F R I E N D -                    
                                      &                                       
                       - I N T E G R A L  F E E D E R -                       
                                                                              
 v1 FN, 2020, v2 2021, v3 2022-2024                                           
------------------------------------------------------------------------------


----------------------
SHARK INTEGRAL PACKAGE
----------------------

Number of atoms                             ...     58
Number of basis functions                   ...   1144
Number of shells                            ...    468
Maximum angular momentum                    ...      3
Integral batch strategy                     ... SHARK/LIBINT Hybrid
RI-J (if used) integral strategy            ... SPLIT-RIJ (Revised 2003 algorithm where possible)
Printlevel                                  ...      1
Contraction scheme used                     ... SEGMENTED contraction
Prescreening option                         ... SCHWARTZ
   Thresh                                   ... 1.000e-10
   Tcut                                     ... 1.000e-11
   Tpresel                                  ... 1.000e-11 
Coulomb Range Separation                    ... NOT USED
Exchange Range Separation                   ... NOT USED
Multipole approximations                    ... NOT USED
Finite Nucleus Model                        ... NOT USED
CABS basis                                  ... NOT available
Auxiliary Coulomb fitting basis             ... AVAILABLE
   # of basis functions in Aux-J            ...   1474
   # of shells in Aux-J                     ...    510
   Maximum angular momentum in Aux-J        ...      4
Auxiliary J/K fitting basis                 ... NOT available
Auxiliary Correlation fitting basis         ... NOT available
Auxiliary 'external' fitting basis          ... NOT available

Checking pre-screening integrals            ... done (  0.0 sec) Dimension = 468
Check shell pair data                       ... done (  0.0 sec)
Shell pair information
Shell pair cut-off parameter TPreSel        ...   1.0e-11
Total number of shell pairs                 ...    109746
Shell pairs after pre-screening             ...     78953
Total number of primitive shell pairs       ...    273283
Primitive shell pairs kept                  ...    139895
          la=0 lb=0:  19556 shell pairs
          la=1 lb=0:  24480 shell pairs
          la=1 lb=1:   7668 shell pairs
          la=2 lb=0:  11776 shell pairs
          la=2 lb=1:   7317 shell pairs
          la=2 lb=2:   1790 shell pairs
          la=3 lb=0:   3154 shell pairs
          la=3 lb=1:   2080 shell pairs
          la=3 lb=2:    999 shell pairs
          la=3 lb=3:    133 shell pairs

Calculating one electron integrals          ... done (  0.1 sec)
Calculating RI/J V-Matrix + Cholesky decomp.... done (  0.3 sec)
Calculating Nuclear repulsion               ... done (  0.0 sec) ENN=   1942.292085665882 Eh

Diagonalization of the overlap matrix:
Smallest eigenvalue                        ... 4.621e-07
Time for diagonalization                   ...    0.134 sec
Threshold for overlap eigenvalues          ... 1.000e-07
Number of eigenvalues below threshold      ... 0

IMPORTANT:
Smallest eigenvalue of S below the DiffSThresh (1.000e-06) while
Thresh>1e-12 and/or TCut>1e-13! In order to avoid SCF convergence issues,
Thresh will be set to at least 1e-12 and TCut to at least 1e-13.
This can be turned off by adding %SCF DiffSThresh -1 END to the input.

Time for construction of square roots      ...    0.124 sec
Total time needed                          ...    0.275 sec

-------------------
DFT GRID GENERATION
-------------------

General Integration Accuracy     IntAcc      ... 4.388
Radial Grid Type                 RadialGrid  ... OptM3 with GC (2021)
Angular Grid (max. ang.)         AngularGrid ... 4 (Lebedev-302)
Angular grid pruning method      GridPruning ... 4 (adaptive)
Weight generation scheme         WeightScheme... mBecke (2022)
Basis function cutoff            BFCut       ... 1.0000e-10
Integration weight cutoff        WCut        ... 1.0000e-14
Partially contracted basis set               ... off
Rotationally invariant grid construction     ... off
Angular grids for H and He will be reduced by one unit
Diffuse basis detected: some atoms will have their outermost
                        angular grid increased by 1.

Total number of grid points                  ...   255943
Total number of batches                      ...     4028
Average number of points per batch           ...       63
Average number of grid points per atom       ...     4413
Initializing property integral containers    ... done (  0.0 sec)

SHARK setup successfully completed in   4.7 seconds

Maximum memory used throughout the entire STARTUP-calculation: 129.2 MB


           ************************************************************
           *        Program running with 64 parallel MPI-processes    *
           *              working on a common directory               *
           ************************************************************
-------------------------------------------------------------------------------
                                 ORCA GUESS
                   Start orbitals & Density for SCF / CASSCF
-------------------------------------------------------------------------------

------------
SCF SETTINGS
------------
Hamiltonian:
 Density Functional     Method          .... DFT(GTOs)
 Exchange Functional    Exchange        .... B88
   X-Alpha parameter    XAlpha          ....  0.666667
   Becke's b parameter  XBeta           ....  0.004200
 Correlation Functional Correlation     .... P86
 LDA part of GGA corr.  LDAOpt          .... PW91-LDA
 Gradients option       PostSCFGGA      .... off
   NL short-range parameter             ....  4.400000
 RI-approximation to the Coulomb term is turned on
   Number of AuxJ basis functions       .... 1474


General Settings:
 Integral files         IntName         .... single_point_tzvpd
 Hartree-Fock type      HFTyp           .... RHF
 Total Charge           Charge          ....    0
 Multiplicity           Mult            ....    1
 Number of Electrons    NEL             ....  174
 Basis Dimension        Dim             .... 1144
 Nuclear Repulsion      ENuc            ....   1942.2920856659 Eh

Convergence Acceleration:
 AO-DIIS                CNVDIIS         .... on
   Start iteration      DIISMaxIt       ....    12
   Startup error        DIISStart       ....  0.200000
   # of expansion vecs  DIISMaxEq       ....     5
   Bias factor          DIISBfac        ....   1.050
   Max. coefficient     DIISMaxC        ....  10.000
 MO-DIIS                CNVKDIIS        .... off
 Trust-Rad. Augm. Hess. CNVTRAH         .... auto
   Auto Start mean grad. ratio tolernc. ....  1.125000
   Auto Start start iteration           ....    50
   Auto Start num. interpolation iter.  ....    10
   Max. Number of Micro iterations      ....    24
   Max. Number of Macro iterations      .... Maxiter - #DIIS iter
   Number of Davidson start vectors     ....     2
   Converg. threshold    (grad. norm)   ....   5.000e-05
   Grad. Scal. Fac. for Micro threshold ....   0.100
   Minimum threshold for Micro iter.    ....   1.000e-02
   NR start threshold (gradient norm)   ....   1.000e-04
   Initial trust radius                 ....   0.400
   Minimum AH scaling param. (alpha)    ....   1.000
   Maximum AH scaling param. (alpha)    .... 1000.000
   Quad. conv. algorithm                .... NR
   White noise on init. David. guess    .... on
   Maximum white noise                  ....   0.010
   Pseudo random numbers                .... off
   Inactive MOs                         .... canonical
   Orbital update algorithm             .... Taylor
   Preconditioner                       .... Diag
   Full preconditioner red. dimension   ....   250
 SOSCF                  CNVSOSCF        .... on
   Start iteration      SOSCFMaxIt      ....   150
   Startup grad/error   SOSCFStart      ....  0.003300
   Hessian update       SOSCFHessUp     .... L-BFGS
 Level Shifting         CNVShift        .... on
   Level shift para.    LevelShift      ....    0.2500
   Turn off err/grad.   ShiftErr        ....    0.0010
 Zerner damping         CNVZerner       .... off
 Static damping         CNVDamp         .... on
   Fraction old density DampFac         ....    0.7000
   Max. Damping (<1)    DampMax         ....    0.9800
   Min. Damping (>=0)   DampMin         ....    0.0000
   Turn off err/grad.   DampErr         ....    0.1000

SCF Procedure:
 Maximum # iterations   MaxIter         ....   125
 SCF integral mode      SCFMode         .... Direct
   Integral package                     .... SHARK and LIBINT hybrid scheme
 Reset frequency        DirectResetFreq ....    20
 Integral Threshold     Thresh          ....  1.000e-12 Eh
 Primitive CutOff       TCut            ....  1.000e-13 Eh

Convergence Tolerance:
 Convergence Check Mode ConvCheckMode   .... Total+1el-Energy
 Convergence forced     ConvForced      .... 0
 Energy Change          TolE            ....  1.000e-06 Eh
 1-El. energy change                    ....  1.000e-03 Eh
 Orbital Gradient       TolG            ....  5.000e-05
 Orbital Rotation angle TolX            ....  5.000e-05
 DIIS Error             TolErr          ....  1.000e-06

------------------------------
INITIAL GUESS: MODEL POTENTIAL
------------------------------
Loading Hartree-Fock densities                     ... done
Calculating cut-offs                               ... done
Initializing the effective Hamiltonian             ... done
Setting up the integral package (SHARK)            ... done
Starting the Coulomb interaction                   ... done (   0.2 sec)
Making the grid                                    ... done (   1.1 sec)
Mapping shells                                     ... done
Starting the XC term evaluation                    ... done (   0.5 sec)
  promolecular density results
     # of electrons  =    173.986028221
     EX              =   -132.817766148
     EC              =     -6.288740603
     EX+EC           =   -139.106506751
Transforming the Hamiltonian                       ... done (   0.3 sec)
Diagonalizing the Hamiltonian                      ... done (   0.1 sec)
Back transforming the eigenvectors                 ... done (   0.1 sec)
Now organizing SCF variables                       ... done
                      ------------------
                      INITIAL GUESS DONE (   2.5 sec)
                      ------------------
             **** ENERGY FILE WAS UPDATED (single_point_tzvpd.en.tmp) ****
Finished Guess after   7.5 sec
Maximum memory used throughout the entire GUESS-calculation: 117.4 MB


           ************************************************************
           *        Program running with 64 parallel MPI-processes    *
           *              working on a common directory               *
           ************************************************************

-------------------------------------------------------------------------------------------
                                      ORCA LEAN-SCF
                              memory conserving SCF solver
-------------------------------------------------------------------------------------------

--------------------
CPCM SOLVATION MODEL
--------------------
CPCM parameters:
  Epsilon                                         ...     INFINITY
  Refrac                                          ...       1.3300
  Rsolv                                           ...       1.3000
  Surface type                                    ... GAUSSIAN VDW
  Discretization scheme                           ... Constant charge density
    Threshold for H atoms                         ...       5.0000 (charges/Ang^2)
    Threshold for non-H atoms                     ...       5.0000 (charges/Ang^2)
  Epsilon function type                           ...         CPCM
Solvent:                                          ... CONDUCTOR
Radii:
  Scheme                                          ... Element-dependent radii
  Radius for C  used is    3.7795 Bohr (=   2.0000 Ang.)
  Radius for N  used is    3.4582 Bohr (=   1.8300 Ang.)
  Radius for O  used is    3.2503 Bohr (=   1.7200 Ang.)
  Radius for H  used is    2.4566 Bohr (=   1.3000 Ang.)
Calculating surface                               ...        done! (  0.0s)
Cavity surface points                             ...         3125
Cavity Volume                                     ...    2814.5022
Cavity Surface-area                               ...    1546.4244
Calculating surface distance matrix               ...        done! (  0.1s)
Performing Cholesky decomposition & store         ...        done! (  0.4s)
Overall time for CPCM initialization              ...                 0.5s

----------------------------------------D-I-I-S--------------------------------------------
Iteration    Energy (Eh)           Delta-E    RMSDP     MaxDP     DIISErr   Damp  Time(sec)
-------------------------------------------------------------------------------------------
               ***  Starting incremental Fock matrix formation  ***
    1    -967.2341941550519095     0.00e+00  3.74e-03  6.05e-01  2.86e-01  0.700   5.5
    2    -967.5939757914600250    -3.60e-01  2.65e-03  4.95e-01  9.19e-02  0.700   5.7
                               ***Turning on AO-DIIS***
    3    -967.7108145702839010    -1.17e-01  1.31e-03  2.46e-01  2.53e-02  0.700   5.4
    4    -967.7842524564150608    -7.34e-02  2.39e-03  3.65e-01  1.21e-02  0.000   5.4
    5    -967.9516344930964351    -1.67e-01  5.12e-04  1.28e-01  1.07e-02  0.000   5.3
    6    -967.9533817750136677    -1.75e-03  2.00e-04  3.87e-02  3.59e-03  0.000   5.4
                              *** Initializing SOSCF ***
---------------------------------------S-O-S-C-F--------------------------------------
Iteration    Energy (Eh)           Delta-E    RMSDP     MaxDP     MaxGrad    Time(sec)
--------------------------------------------------------------------------------------
    7    -967.9535803467040296    -1.99e-04  8.68e-05  1.68e-02  1.38e-03     5.8
               *** Restarting incremental Fock matrix formation ***
    8    -967.9536034454065430    -2.31e-05  9.22e-05  1.97e-02  1.04e-04     5.1
    9    -967.9535989032299312     4.54e-06  1.83e-05  2.75e-03  4.22e-04     4.8
   10    -967.9536067801930130    -7.88e-06  3.65e-05  8.18e-03  1.96e-04     4.7
   11    -967.9536048489715085     1.93e-06  1.39e-05  3.00e-03  2.25e-04     4.7
   12    -967.9536079026772768    -3.05e-06  1.30e-05  2.13e-03  3.40e-05     4.7
   13    -967.9536078437661217     5.89e-08  5.07e-06  8.29e-04  6.61e-05     4.8
                 **** Energy Check signals convergence ****

               *****************************************************
               *                     SUCCESS                       *
               *           SCF CONVERGED AFTER  13 CYCLES          *
               *****************************************************

             **** ENERGY FILE WAS UPDATED (single_point_tzvpd.en.tmp) ****

----------------
TOTAL SCF ENERGY
----------------

Total Energy       :       -967.95360784376612 Eh          -26339.35674 eV

Components:
Nuclear Repulsion  :       1942.29208566588227 Eh           52852.45462 eV
Electronic Energy  :      -2910.21051705408900 Eh          -79190.85415 eV
One Electron Energy:      -5172.77970300060042 Eh         -140758.49174 eV
Two Electron Energy:       2262.56918594651142 Eh           61567.63759 eV
CPCM Dielectric    :         -0.03517645555946 Eh              -0.95720 eV

Virial components:
Potential Energy   :      -1931.14728574678657 Eh          -52549.18919 eV
Kinetic Energy     :        963.19367790302033 Eh           26209.83246 eV
Virial Ratio       :          2.00494182016550

DFT components:
N(Alpha)           :       86.999854339777 electrons
N(Beta)            :       86.999854339777 electrons
N(Total)           :      173.999708679554 electrons
E(X)               :     -136.127322079936 Eh       
E(C)               :       -6.248628399431 Eh       
E(XC)              :     -142.375950479367 Eh       

CPCM Solvation Model Properties:
Surface-charge          :         -0.05510901331723
Corrected charge        :         -0.00000000000000
Outlying charge corr.   :          0.00014627958122 Eh               0.00398 eV
Free-energy (cav+disp)  :  This term is not implemented in the current solvation scheme

---------------
SCF CONVERGENCE
---------------

  Last Energy change         ...   -5.8911e-08  Tolerance :   1.0000e-06
  Last MAX-Density change    ...    8.2894e-04  Tolerance :   1.0000e-05
  Last RMS-Density change    ...    5.0739e-06  Tolerance :   1.0000e-06
  Last DIIS Error            ...    1.3849e-03  Tolerance :   1.0000e-06
  Last Orbital Gradient      ...    6.6050e-05  Tolerance :   5.0000e-05
  Last Orbital Rotation      ...    7.0243e-05  Tolerance :   5.0000e-05


----------------
ORBITAL ENERGIES
----------------

  NO   OCC          E(Eh)            E(eV) 
   0   2.0000     -18.741858      -509.9919 
   1   2.0000     -18.741758      -509.9892 
   2   2.0000     -14.036614      -381.9557 
   3   2.0000     -14.033100      -381.8601 
   4   2.0000      -9.999295      -272.0946 
   5   2.0000      -9.994973      -271.9770 
   6   2.0000      -9.922479      -270.0044 
   7   2.0000      -9.922237      -269.9978 
   8   2.0000      -9.921292      -269.9721 
   9   2.0000      -9.921239      -269.9706 
  10   2.0000      -9.919691      -269.9285 
  11   2.0000      -9.897263      -269.3182 
  12   2.0000      -9.888661      -269.0842 
  13   2.0000      -9.885853      -269.0077 
  14   2.0000      -9.885253      -268.9914 
  15   2.0000      -9.884706      -268.9765 
  16   2.0000      -9.883548      -268.9450 
  17   2.0000      -9.882669      -268.9211 
  18   2.0000      -9.882173      -268.9076 
  19   2.0000      -9.876930      -268.7649 
  20   2.0000      -9.876898      -268.7640 
  21   2.0000      -9.875435      -268.7243 
  22   2.0000      -0.959561       -26.1110 
  23   2.0000      -0.950286       -25.8586 
  24   2.0000      -0.853807       -23.2333 
  25   2.0000      -0.853152       -23.2155 
  26   2.0000      -0.743003       -20.2181 
  27   2.0000      -0.723879       -19.6977 
  28   2.0000      -0.722066       -19.6484 
  29   2.0000      -0.710621       -19.3370 
  30   2.0000      -0.669536       -18.2190 
  31   2.0000      -0.663364       -18.0510 
  32   2.0000      -0.655053       -17.8249 
  33   2.0000      -0.637808       -17.3556 
  34   2.0000      -0.629945       -17.1417 
  35   2.0000      -0.597735       -16.2652 
  36   2.0000      -0.584799       -15.9132 
  37   2.0000      -0.565446       -15.3866 
  38   2.0000      -0.531572       -14.4648 
  39   2.0000      -0.526244       -14.3198 
  40   2.0000      -0.522693       -14.2232 
  41   2.0000      -0.516328       -14.0500 
  42   2.0000      -0.494764       -13.4632 
  43   2.0000      -0.480432       -13.0732 
  44   2.0000      -0.460422       -12.5287 
  45   2.0000      -0.454292       -12.3619 
  46   2.0000      -0.432692       -11.7741 
  47   2.0000      -0.428326       -11.6553 
  48   2.0000      -0.426108       -11.5950 
  49   2.0000      -0.422404       -11.4942 
  50   2.0000      -0.416620       -11.3368 
  51   2.0000      -0.411060       -11.1855 
  52   2.0000      -0.402784       -10.9603 
  53   2.0000      -0.390628       -10.6295 
  54   2.0000      -0.386848       -10.5267 
  55   2.0000      -0.384493       -10.4626 
  56   2.0000      -0.375981       -10.2310 
  57   2.0000      -0.371631       -10.1126 
  58   2.0000      -0.368659       -10.0317 
  59   2.0000      -0.364545        -9.9198 
  60   2.0000      -0.361889        -9.8475 
  61   2.0000      -0.359807        -9.7908 
  62   2.0000      -0.353732        -9.6255 
  63   2.0000      -0.351173        -9.5559 
  64   2.0000      -0.347254        -9.4493 
  65   2.0000      -0.341539        -9.2937 
  66   2.0000      -0.337511        -9.1841 
  67   2.0000      -0.329977        -8.9791 
  68   2.0000      -0.324421        -8.8280 
  69   2.0000      -0.318162        -8.6576 
  70   2.0000      -0.314861        -8.5678 
  71   2.0000      -0.309217        -8.4142 
  72   2.0000      -0.303515        -8.2591 
  73   2.0000      -0.302505        -8.2316 
  74   2.0000      -0.299115        -8.1393 
  75   2.0000      -0.294169        -8.0047 
  76   2.0000      -0.289568        -7.8796 
  77   2.0000      -0.287421        -7.8211 
  78   2.0000      -0.286345        -7.7918 
  79   2.0000      -0.284849        -7.7511 
  80   2.0000      -0.282172        -7.6783 
  81   2.0000      -0.278634        -7.5820 
  82   2.0000      -0.273055        -7.4302 
  83   2.0000      -0.226993        -6.1768 
  84   2.0000      -0.221950        -6.0396 
  85   2.0000      -0.211151        -5.7457 
  86   2.0000      -0.207992        -5.6597 
  87   0.0000      -0.038165        -1.0385 
  88   0.0000      -0.028068        -0.7638 
  89   0.0000      -0.003427        -0.0932 
  90   0.0000       0.007145         0.1944 
  91   0.0000       0.008417         0.2290 
  92   0.0000       0.012937         0.3520 
  93   0.0000       0.016297         0.4435 
  94   0.0000       0.019612         0.5337 
  95   0.0000       0.022017         0.5991 
  96   0.0000       0.026846         0.7305 
  97   0.0000       0.028808         0.7839 
*Only the first 10 virtual orbitals were printed.

                    ********************************
                    * MULLIKEN POPULATION ANALYSIS *
                    ********************************

-----------------------
MULLIKEN ATOMIC CHARGES
-----------------------
   0 C :   -1.455784
   1 C :   -0.321690
   2 C :   -0.250015
   3 C :   -0.877896
   4 N :    0.286752
   5 C :   -1.157754
   6 C :   -0.711050
   7 O :   -0.732609
   8 C :    1.848219
   9 C :    0.083427
  10 O :   -0.750912
  11 N :    0.244938
  12 C :   -1.213416
  13 C :   -0.902949
  14 C :   -0.672751
  15 C :    0.240446
  16 C :   -1.677742
  17 C :   -1.181605
  18 C :   -0.617563
  19 C :   -0.660897
  20 C :   -0.202527
  21 C :   -1.474975
  22 H :    0.396610
  23 H :    0.362766
  24 H :    0.363874
  25 H :    0.276666
  26 H :    0.297291
  27 H :    0.267132
  28 H :    0.311039
  29 H :    0.306468
  30 H :    0.202370
  31 H :    0.350291
  32 H :    0.333319
  33 H :    0.442525
  34 H :    0.700409
  35 H :    0.501510
  36 H :    0.345707
  37 H :    0.326659
  38 H :    0.339996
  39 H :    0.321537
  40 H :    0.336759
  41 H :    0.305043
  42 H :    0.305919
  43 H :    0.091372
  44 H :    0.382049
  45 H :    0.399229
  46 H :    0.376282
  47 H :    0.186475
  48 H :    0.440421
  49 H :    0.326381
  50 H :    0.208141
  51 H :    0.312963
  52 H :    0.298600
  53 H :    0.314836
  54 H :    0.317607
  55 H :    0.358164
  56 H :    0.401289
  57 H :    0.350653
Sum of atomic charges:   -0.0000000

--------------------------------
MULLIKEN REDUCED ORBITAL CHARGES
--------------------------------
  0 C s       :     3.615754  s :     3.615754
      pz      :     1.017894  p :     3.755616
      px      :     1.357351
      py      :     1.380370
      dz2     :     0.004679  d :     0.081245
      dxz     :     0.016579
      dyz     :    -0.007226
      dx2y2   :     0.026399
      dxy     :     0.040814
      f0      :     0.000963  f :     0.003170
      f+1     :     0.000828
      f-1     :     0.000657
      f+2     :     0.000187
      f-2     :     0.000084
      f+3     :     0.000178
      f-3     :     0.000273

  1 C s       :     3.304451  s :     3.304451
      pz      :     1.003522  p :     3.156347
      px      :     1.169019
      py      :     0.983806
      dz2     :    -0.022793  d :    -0.144651
      dxz     :    -0.029938
      dyz     :    -0.015127
      dx2y2   :    -0.025097
      dxy     :    -0.051696
      f0      :     0.001367  f :     0.005543
      f+1     :     0.000943
      f-1     :     0.000864
      f+2     :     0.000582
      f-2     :     0.000231
      f+3     :     0.000716
      f-3     :     0.000841

  2 C s       :     3.336494  s :     3.336494
      pz      :     0.812311  p :     2.977704
      px      :     1.233221
      py      :     0.932172
      dz2     :    -0.004762  d :    -0.069609
      dxz     :    -0.015796
      dyz     :    -0.030123
      dx2y2   :     0.003259
      dxy     :    -0.022187
      f0      :     0.001259  f :     0.005427
      f+1     :     0.000914
      f-1     :     0.000726
      f+2     :     0.000729
      f-2     :     0.000265
      f+3     :     0.000684
      f-3     :     0.000849

  3 C s       :     3.734257  s :     3.734257
      pz      :     1.081704  p :     3.063954
      px      :     1.075339
      py      :     0.906910
      dz2     :    -0.020520  d :     0.071713
      dxz     :     0.007546
      dyz     :     0.008860
      dx2y2   :     0.017125
      dxy     :     0.058702
      f0      :     0.001682  f :     0.007972
      f+1     :     0.000979
      f-1     :     0.001151
      f+2     :     0.001306
      f-2     :     0.000369
      f+3     :     0.001100
      f-3     :     0.001386

  4 N s       :     3.376207  s :     3.376207
      pz      :     1.474294  p :     3.242064
      px      :     0.896564
      py      :     0.871206
      dz2     :     0.000753  d :     0.090563
      dxz     :     0.012283
      dyz     :     0.002480
      dx2y2   :     0.006743
      dxy     :     0.068304
      f0      :     0.000575  f :     0.004415
      f+1     :     0.000688
      f-1     :     0.000470
      f+2     :     0.000471
      f-2     :     0.000536
      f+3     :     0.000933
      f-3     :     0.000742

  5 C s       :     3.686949  s :     3.686949
      pz      :     1.362052  p :     3.387409
      px      :     0.978625
      py      :     1.046732
      dz2     :     0.013807  d :     0.077821
      dxz     :     0.020063
      dyz     :     0.039140
      dx2y2   :     0.009889
      dxy     :    -0.005077
      f0      :     0.000767  f :     0.005575
      f+1     :     0.000606
      f-1     :     0.000436
      f+2     :    -0.000025
      f-2     :     0.001581
      f+3     :     0.001091
      f-3     :     0.001120

  6 C s       :     4.175844  s :     4.175844
      pz      :     0.646364  p :     2.370501
      px      :     0.764795
      py      :     0.959341
      dz2     :     0.031158  d :     0.144140
      dxz     :     0.014844
      dyz     :     0.045424
      dx2y2   :     0.087438
      dxy     :    -0.034724
      f0      :     0.001463  f :     0.020565
      f+1     :     0.002413
      f-1     :     0.001887
      f+2     :     0.002624
      f-2     :     0.002844
      f+3     :     0.004536
      f-3     :     0.004799

  7 O s       :     4.028094  s :     4.028094
      pz      :     1.489397  p :     4.654506
      px      :     1.573306
      py      :     1.591803
      dz2     :     0.007883  d :     0.048331
      dxz     :     0.011574
      dyz     :     0.009279
      dx2y2   :     0.006018
      dxy     :     0.013575
      f0      :     0.000090  f :     0.001678
      f+1     :     0.000183
      f-1     :     0.000193
      f+2     :     0.000139
      f-2     :     0.000336
      f+3     :     0.000358
      f-3     :     0.000379

  8 C s       :     2.396431  s :     2.396431
      pz      :     0.622985  p :     1.677883
      px      :     0.590735
      py      :     0.464163
      dz2     :     0.024926  d :     0.070388
      dxz     :    -0.065411
      dyz     :    -0.006333
      dx2y2   :     0.045118
      dxy     :     0.072089
      f0      :     0.001077  f :     0.007080
      f+1     :     0.000799
      f-1     :     0.000967
      f+2     :     0.001245
      f-2     :     0.000312
      f+3     :     0.001243
      f-3     :     0.001436

  9 C s       :     3.549840  s :     3.549840
      pz      :     0.710336  p :     2.191984
      px      :     0.804126
      py      :     0.677521
      dz2     :    -0.003474  d :     0.154142
      dxz     :     0.033051
      dyz     :     0.012974
      dx2y2   :     0.072882
      dxy     :     0.038709
      f0      :     0.005153  f :     0.020607
      f+1     :     0.002423
      f-1     :     0.003101
      f+2     :     0.003756
      f-2     :     0.002147
      f+3     :     0.002255
      f-3     :     0.001774

 10 O s       :     4.024519  s :     4.024519
      pz      :     1.417251  p :     4.682240
      px      :     1.561398
      py      :     1.703590
      dz2     :     0.010099  d :     0.042485
      dxz     :     0.010491
      dyz     :     0.009566
      dx2y2   :     0.005217
      dxy     :     0.007111
      f0      :     0.000413  f :     0.001668
      f+1     :     0.000232
      f-1     :     0.000391
      f+2     :     0.000249
      f-2     :     0.000299
      f+3     :     0.000043
      f-3     :     0.000041

 11 N s       :     3.398350  s :     3.398350
      pz      :     0.898092  p :     3.307585
      px      :     1.530762
      py      :     0.878731
      dz2     :    -0.002436  d :     0.044706
      dxz     :     0.001774
      dyz     :     0.011544
      dx2y2   :     0.016919
      dxy     :     0.016905
      f0      :     0.000848  f :     0.004422
      f+1     :     0.000373
      f-1     :     0.000593
      f+2     :     0.000847
      f-2     :     0.000516
      f+3     :     0.000658
      f-3     :     0.000587

 12 C s       :     3.680137  s :     3.680137
      pz      :     0.933030  p :     3.406435
      px      :     1.303700
      py      :     1.169704
      dz2     :     0.017322  d :     0.121305
      dxz     :     0.026926
      dyz     :     0.002421
      dx2y2   :     0.037679
      dxy     :     0.036958
      f0      :     0.000892  f :     0.005539
      f+1     :     0.000705
      f-1     :     0.001477
      f+2     :     0.000714
      f-2     :     0.001187
      f+3     :     0.000468
      f-3     :     0.000095

 13 C s       :     3.675887  s :     3.675887
      pz      :     1.038150  p :     3.100005
      px      :     1.014710
      py      :     1.047145
      dz2     :     0.027855  d :     0.119390
      dxz     :     0.003881
      dyz     :     0.012521
      dx2y2   :     0.006723
      dxy     :     0.068410
      f0      :     0.001248  f :     0.007667
      f+1     :     0.000959
      f-1     :     0.001775
      f+2     :     0.000976
      f-2     :     0.000973
      f+3     :     0.001091
      f-3     :     0.000644

 14 C s       :     3.394326  s :     3.394326
      pz      :     1.208711  p :     3.242355
      px      :     0.978845
      py      :     1.054800
      dz2     :     0.005300  d :     0.030710
      dxz     :    -0.013602
      dyz     :     0.023842
      dx2y2   :     0.013835
      dxy     :     0.001335
      f0      :     0.000643  f :     0.005360
      f+1     :     0.000134
      f-1     :     0.000885
      f+2     :     0.000127
      f-2     :     0.000895
      f+3     :     0.001497
      f-3     :     0.001179

 15 C s       :     3.164207  s :     3.164207
      pz      :     1.099697  p :     2.829881
      px      :     0.914136
      py      :     0.816048
      dz2     :    -0.018467  d :    -0.240055
      dxz     :    -0.119370
      dyz     :    -0.037625
      dx2y2   :    -0.054684
      dxy     :    -0.009909
      f0      :     0.000689  f :     0.005520
      f+1     :     0.000120
      f-1     :     0.000913
      f+2     :     0.000102
      f-2     :     0.000983
      f+3     :     0.001594
      f-3     :     0.001119

 16 C s       :     3.698205  s :     3.698205
      pz      :     1.439968  p :     3.888394
      px      :     1.105628
      py      :     1.342798
      dz2     :     0.019997  d :     0.088004
      dxz     :    -0.011412
      dyz     :     0.051342
      dx2y2   :     0.004034
      dxy     :     0.024043
      f0      :     0.000378  f :     0.003138
      f+1     :     0.000016
      f-1     :     0.000827
      f+2     :     0.000114
      f-2     :     0.000297
      f+3     :     0.000944
      f-3     :     0.000562

 17 C s       :     3.789934  s :     3.789934
      pz      :     1.026129  p :     3.259918
      px      :     1.056969
      py      :     1.176821
      dz2     :     0.033631  d :     0.126366
      dxz     :     0.015059
      dyz     :    -0.016957
      dx2y2   :     0.038385
      dxy     :     0.056248
      f0      :     0.000940  f :     0.005387
      f+1     :     0.000772
      f-1     :     0.000754
      f+2     :     0.001018
      f-2     :     0.000179
      f+3     :     0.000664
      f-3     :     0.001059

 18 C s       :     3.512897  s :     3.512897
      pz      :     0.938595  p :     3.130506
      px      :     1.054379
      py      :     1.137532
      dz2     :    -0.026540  d :    -0.031216
      dxz     :     0.019903
      dyz     :    -0.035188
      dx2y2   :    -0.020291
      dxy     :     0.030901
      f0      :     0.000961  f :     0.005376
      f+1     :     0.000731
      f-1     :     0.000747
      f+2     :     0.001054
      f-2     :     0.000201
      f+3     :     0.000618
      f-3     :     0.001064

 19 C s       :     3.436011  s :     3.436011
      pz      :     1.017690  p :     3.156603
      px      :     1.004898
      py      :     1.134014
      dz2     :     0.009334  d :     0.062886
      dxz     :     0.026210
      dyz     :    -0.002354
      dx2y2   :     0.018467
      dxy     :     0.011229
      f0      :     0.000944  f :     0.005398
      f+1     :     0.000686
      f-1     :     0.000768
      f+2     :     0.001078
      f-2     :     0.000169
      f+3     :     0.000677
      f-3     :     0.001075

 20 C s       :     3.264091  s :     3.264091
      pz      :     1.008910  p :     3.098250
      px      :     0.979469
      py      :     1.109871
      dz2     :    -0.031562  d :    -0.165330
      dxz     :    -0.044514
      dyz     :    -0.016278
      dx2y2   :    -0.017235
      dxy     :    -0.055742
      f0      :     0.000990  f :     0.005517
      f+1     :     0.000678
      f-1     :     0.000754
      f+2     :     0.001126
      f-2     :     0.000158
      f+3     :     0.000653
      f-3     :     0.001158

 21 C s       :     3.637757  s :     3.637757
      pz      :     1.381748  p :     3.762383
      px      :     1.000620
      py      :     1.380015
      dz2     :     0.032033  d :     0.071686
      dxz     :     0.006066
      dyz     :     0.022693
      dx2y2   :     0.019307
      dxy     :    -0.008413
      f0      :     0.000355  f :     0.003150
      f+1     :     0.000389
      f-1     :     0.000471
      f+2     :     0.000570
      f-2     :    -0.000156
      f+3     :     0.000571
      f-3     :     0.000949

 22 H s       :     0.532945  s :     0.532945
      pz      :     0.009347  p :     0.070444
      px      :     0.022952
      py      :     0.038145

 23 H s       :     0.561880  s :     0.561880
      pz      :     0.015207  p :     0.075354
      px      :     0.035797
      py      :     0.024351

 24 H s       :     0.562752  s :     0.562752
      pz      :     0.021110  p :     0.073373
      px      :     0.030895
      py      :     0.021368

 25 H s       :     0.660570  s :     0.660570
      pz      :     0.021578  p :     0.062764
      px      :     0.025653
      py      :     0.015533

 26 H s       :     0.642145  s :     0.642145
      pz      :     0.014641  p :     0.060563
      px      :     0.025851
      py      :     0.020072

 27 H s       :     0.687830  s :     0.687830
      pz      :    -0.000690  p :     0.045037
      px      :     0.035483
      py      :     0.010244

 28 H s       :     0.667921  s :     0.667921
      pz      :     0.010698  p :     0.021040
      px      :     0.006357
      py      :     0.003984

 29 H s       :     0.630313  s :     0.630313
      pz      :     0.021787  p :     0.063219
      px      :    -0.005628
      py      :     0.047059

 30 H s       :     0.729167  s :     0.729167
      pz      :     0.013152  p :     0.068463
      px      :     0.033802
      py      :     0.021509

 31 H s       :     0.594296  s :     0.594296
      pz      :     0.012876  p :     0.055412
      px      :     0.016407
      py      :     0.026129

 32 H s       :     0.603831  s :     0.603831
      pz      :     0.011442  p :     0.062849
      px      :     0.031858
      py      :     0.019550

 33 H s       :     0.510043  s :     0.510043
      pz      :     0.050166  p :     0.047432
      px      :    -0.009143
      py      :     0.006408

 34 H s       :     0.496814  s :     0.496814
      pz      :    -0.045869  p :    -0.197224
      px      :    -0.080193
      py      :    -0.071161

 35 H s       :     0.489668  s :     0.489668
      pz      :     0.005069  p :     0.008822
      px      :    -0.013538
      py      :     0.017291

 36 H s       :     0.599960  s :     0.599960
      pz      :     0.020835  p :     0.054334
      px      :     0.003384
      py      :     0.030114

 37 H s       :     0.626264  s :     0.626264
      pz      :    -0.005676  p :     0.047077
      px      :     0.042891
      py      :     0.009863

 38 H s       :     0.595460  s :     0.595460
      pz      :     0.038734  p :     0.064544
      px      :     0.021732
      py      :     0.004078

 39 H s       :     0.634731  s :     0.634731
      pz      :     0.010954  p :     0.043732
      px      :    -0.000499
      py      :     0.033277

 40 H s       :     0.620877  s :     0.620877
      pz      :     0.019154  p :     0.042364
      px      :     0.018161
      py      :     0.005049

 41 H s       :     0.654337  s :     0.654337
      pz      :     0.022488  p :     0.040620
      px      :     0.007639
      py      :     0.010493

 42 H s       :     0.671263  s :     0.671263
      pz      :     0.007608  p :     0.022818
      px      :     0.010629
      py      :     0.004581

 43 H s       :     0.828462  s :     0.828462
      pz      :     0.014955  p :     0.080166
      px      :     0.047155
      py      :     0.018056

 44 H s       :     0.540293  s :     0.540293
      pz      :     0.040786  p :     0.077658
      px      :     0.007410
      py      :     0.029463

 45 H s       :     0.527655  s :     0.527655
      pz      :     0.027068  p :     0.073116
      px      :     0.027507
      py      :     0.018541

 46 H s       :     0.545041  s :     0.545041
      pz      :     0.036349  p :     0.078677
      px      :     0.006345
      py      :     0.035983

 47 H s       :     0.835565  s :     0.835565
      pz      :     0.005352  p :    -0.022040
      px      :    -0.026562
      py      :    -0.000830

 48 H s       :     0.519452  s :     0.519452
      pz      :    -0.025629  p :     0.040127
      px      :     0.029424
      py      :     0.036332

 49 H s       :     0.672978  s :     0.672978
      pz      :     0.001626  p :     0.000642
      px      :    -0.012938
      py      :     0.011954

 50 H s       :     0.720833  s :     0.720833
      pz      :     0.028355  p :     0.071026
      px      :     0.022581
      py      :     0.020089

 51 H s       :     0.653809  s :     0.653809
      pz      :     0.029532  p :     0.033228
      px      :     0.000313
      py      :     0.003384

 52 H s       :     0.657289  s :     0.657289
      pz      :    -0.011252  p :     0.044111
      px      :     0.016598
      py      :     0.038765

 53 H s       :     0.627421  s :     0.627421
      pz      :     0.026303  p :     0.057743
      px      :     0.018620
      py      :     0.012819

 54 H s       :     0.625493  s :     0.625493
      pz      :     0.005615  p :     0.056900
      px      :     0.017896
      py      :     0.033389

 55 H s       :     0.564332  s :     0.564332
      pz      :     0.027017  p :     0.077504
      px      :     0.010161
      py      :     0.040326

 56 H s       :     0.529838  s :     0.529838
      pz      :     0.029339  p :     0.068873
      px      :     0.017303
      py      :     0.022231

 57 H s       :     0.571264  s :     0.571264
      pz      :     0.033756  p :     0.078082
      px      :     0.013584
      py      :     0.030742



                     *******************************
                     * LOEWDIN POPULATION ANALYSIS *
                     *******************************

----------------------
LOEWDIN ATOMIC CHARGES
----------------------
   0 C :   -0.131960
   1 C :   -0.274402
   2 C :   -0.204984
   3 C :   -0.170364
   4 N :   -0.073304
   5 C :   -0.031342
   6 C :   -0.413689
   7 O :    0.019386
   8 C :   -0.160712
   9 C :   -0.409607
  10 O :    0.013392
  11 N :   -0.066729
  12 C :   -0.030283
  13 C :   -0.163380
  14 C :   -0.199021
  15 C :   -0.272946
  16 C :   -0.128308
  17 C :   -0.149144
  18 C :   -0.208698
  19 C :   -0.230391
  20 C :   -0.283591
  21 C :   -0.135711
  22 H :    0.069725
  23 H :    0.075045
  24 H :    0.075356
  25 H :    0.112974
  26 H :    0.113506
  27 H :    0.111798
  28 H :    0.121176
  29 H :    0.130426
  30 H :    0.123405
  31 H :    0.102429
  32 H :    0.094598
  33 H :    0.091904
  34 H :    0.127726
  35 H :    0.089645
  36 H :    0.102732
  37 H :    0.097119
  38 H :    0.126210
  39 H :    0.116809
  40 H :    0.110669
  41 H :    0.121803
  42 H :    0.112981
  43 H :    0.102335
  44 H :    0.074800
  45 H :    0.070601
  46 H :    0.075481
  47 H :    0.123372
  48 H :    0.125255
  49 H :    0.124532
  50 H :    0.106049
  51 H :    0.119903
  52 H :    0.118624
  53 H :    0.110058
  54 H :    0.110981
  55 H :    0.073451
  56 H :    0.068525
  57 H :    0.073786

-------------------------------
LOEWDIN REDUCED ORBITAL CHARGES
-------------------------------
  0 C s       :     2.741503  s :     2.741503
      pz      :     0.955448  p :     2.888006
      px      :     0.969519
      py      :     0.963038
      dz2     :     0.119368  d :     0.475494
      dxz     :     0.151852
      dyz     :     0.090809
      dx2y2   :     0.056646
      dxy     :     0.056820
      f0      :     0.005914  f :     0.026957
      f+1     :     0.004415
      f-1     :     0.006308
      f+2     :     0.003505
      f-2     :     0.002925
      f+3     :     0.001603
      f-3     :     0.002287

  1 C s       :     2.687583  s :     2.687583
      pz      :     0.926440  p :     2.775381
      px      :     0.930025
      py      :     0.918917
      dz2     :     0.155803  d :     0.770449
      dxz     :     0.174212
      dyz     :     0.181705
      dx2y2   :     0.105267
      dxy     :     0.153461
      f0      :     0.008359  f :     0.040989
      f+1     :     0.004948
      f-1     :     0.007401
      f+2     :     0.006015
      f-2     :     0.003956
      f+3     :     0.004502
      f-3     :     0.005808

  2 C s       :     2.678481  s :     2.678481
      pz      :     0.901951  p :     2.728378
      px      :     0.921640
      py      :     0.904787
      dz2     :     0.155449  d :     0.758584
      dxz     :     0.161808
      dyz     :     0.162226
      dx2y2   :     0.117840
      dxy     :     0.161261
      f0      :     0.007600  f :     0.039541
      f+1     :     0.005039
      f-1     :     0.006296
      f+2     :     0.006422
      f-2     :     0.003844
      f+3     :     0.004342
      f-3     :     0.005998

  3 C s       :     2.664890  s :     2.664890
      pz      :     0.928464  p :     2.646845
      px      :     0.925471
      py      :     0.792910
      dz2     :     0.156351  d :     0.805050
      dxz     :     0.168765
      dyz     :     0.187359
      dx2y2   :     0.133097
      dxy     :     0.159478
      f0      :     0.009473  f :     0.053580
      f+1     :     0.005039
      f-1     :     0.008911
      f+2     :     0.009382
      f-2     :     0.004482
      f+3     :     0.007046
      f-3     :     0.009248

  4 N s       :     2.827026  s :     2.827026
      pz      :     1.215519  p :     3.328752
      px      :     1.067019
      py      :     1.046214
      dz2     :     0.084955  d :     0.898502
      dxz     :     0.147036
      dyz     :     0.144632
      dx2y2   :     0.255039
      dxy     :     0.266840
      f0      :     0.002014  f :     0.019024
      f+1     :     0.001806
      f-1     :     0.001744
      f+2     :     0.002674
      f-2     :     0.002493
      f+3     :     0.004783
      f-3     :     0.003508

  5 C s       :     2.710747  s :     2.710747
      pz      :     0.969136  p :     2.753214
      px      :     0.877278
      py      :     0.906800
      dz2     :     0.054540  d :     0.525978
      dxz     :     0.122735
      dyz     :     0.108608
      dx2y2   :     0.119363
      dxy     :     0.120732
      f0      :     0.005526  f :     0.041403
      f+1     :     0.005168
      f-1     :     0.003834
      f+2     :     0.002224
      f-2     :     0.008449
      f+3     :     0.007957
      f-3     :     0.008245

  6 C s       :     2.619181  s :     2.619181
      pz      :     0.684560  p :     2.366099
      px      :     0.807901
      py      :     0.873637
      dz2     :     0.170965  d :     1.303757
      dxz     :     0.234093
      dyz     :     0.188294
      dx2y2   :     0.396992
      dxy     :     0.313414
      f0      :     0.008538  f :     0.124654
      f+1     :     0.009892
      f-1     :     0.012318
      f+2     :     0.015628
      f-2     :     0.020138
      f+3     :     0.028307
      f-3     :     0.029833

  7 O s       :     3.315397  s :     3.315397
      pz      :     1.351915  p :     4.374694
      px      :     1.494927
      py      :     1.527852
      dz2     :     0.035247  d :     0.284535
      dxz     :     0.052217
      dyz     :     0.040906
      dx2y2   :     0.080796
      dxy     :     0.075369
      f0      :     0.000481  f :     0.005988
      f+1     :     0.000529
      f-1     :     0.000509
[...]
      py      :     0.063875

 34 H s       :     0.629147  s :     0.629147
      pz      :     0.082557  p :     0.243128
      px      :     0.079968
      py      :     0.080604

 35 H s       :     0.671270  s :     0.671270
      pz      :     0.073548  p :     0.239085
      px      :     0.074206
      py      :     0.091331

 36 H s       :     0.686769  s :     0.686769
      pz      :     0.055717  p :     0.210498
      px      :     0.068870
      py      :     0.085911

 37 H s       :     0.685132  s :     0.685132
      pz      :     0.056346  p :     0.217749
      px      :     0.107442
      py      :     0.053961

 38 H s       :     0.672549  s :     0.672549
      pz      :     0.052661  p :     0.201241
      px      :     0.071666
      py      :     0.076914

 39 H s       :     0.655696  s :     0.655696
      pz      :     0.072469  p :     0.227495
      px      :     0.055931
      py      :     0.099095

 40 H s       :     0.672165  s :     0.672165
      pz      :     0.091201  p :     0.217167
      px      :     0.056299
      py      :     0.069667

 41 H s       :     0.674058  s :     0.674058
      pz      :     0.087802  p :     0.204139
      px      :     0.054103
      py      :     0.062235

 42 H s       :     0.681169  s :     0.681169
      pz      :     0.080333  p :     0.205851
      px      :     0.054953
      py      :     0.070565

 43 H s       :     0.676608  s :     0.676608
      pz      :     0.094121  p :     0.221056
      px      :     0.056894
      py      :     0.070041

 44 H s       :     0.701699  s :     0.701699
      pz      :     0.096322  p :     0.223500
      px      :     0.056633
      py      :     0.070545

 45 H s       :     0.706908  s :     0.706908
      pz      :     0.060311  p :     0.222491
      px      :     0.078747
      py      :     0.083433

 46 H s       :     0.701092  s :     0.701092
      pz      :     0.087167  p :     0.223427
      px      :     0.056913
      py      :     0.079348

 47 H s       :     0.661057  s :     0.661057
      pz      :     0.083331  p :     0.215571
      px      :     0.062667
      py      :     0.069572

 48 H s       :     0.663148  s :     0.663148
      pz      :     0.053692  p :     0.211597
      px      :     0.058590
      py      :     0.099315

 49 H s       :     0.674404  s :     0.674404
      pz      :     0.082544  p :     0.201064
      px      :     0.058655
      py      :     0.059865

 50 H s       :     0.661151  s :     0.661151
      pz      :     0.063792  p :     0.232800
      px      :     0.065591
      py      :     0.103417

 51 H s       :     0.674908  s :     0.674908
      pz      :     0.085839  p :     0.205189
      px      :     0.059764
      py      :     0.059586

 52 H s       :     0.677081  s :     0.677081
      pz      :     0.051441  p :     0.204295
      px      :     0.056660
      py      :     0.096194

 53 H s       :     0.684542  s :     0.684542
      pz      :     0.083940  p :     0.205400
      px      :     0.060915
      py      :     0.060545

 54 H s       :     0.683466  s :     0.683466
      pz      :     0.051903  p :     0.205554
      px      :     0.057112
      py      :     0.096539

 55 H s       :     0.702668  s :     0.702668
      pz      :     0.059941  p :     0.223881
      px      :     0.056551
      py      :     0.107388

 56 H s       :     0.707971  s :     0.707971
      pz      :     0.091564  p :     0.223504
      px      :     0.060736
      py      :     0.071203

 57 H s       :     0.702810  s :     0.702810
      pz      :     0.096917  p :     0.223403
      px      :     0.060048
      py      :     0.066438



                      *****************************
                      * MAYER POPULATION ANALYSIS *
                      *****************************

  NA   - Mulliken gross atomic population
  ZA   - Total nuclear charge
  QA   - Mulliken gross atomic charge
  VA   - Mayer's total valence
  BVA  - Mayer's bonded valence
  FA   - Mayer's free valence

  ATOM       NA         ZA         QA         VA         BVA        FA
  0 C      7.4558     6.0000    -1.4558     3.5325     3.5325    -0.0000
  1 C      6.3217     6.0000    -0.3217     3.0002     3.0002     0.0000
  2 C      6.2500     6.0000    -0.2500     3.1000     3.1000     0.0000
  3 C      6.8779     6.0000    -0.8779     3.4132     3.4132     0.0000
  4 N      6.7132     7.0000     0.2868     3.0020     3.0020    -0.0000
  5 C      7.1578     6.0000    -1.1578     3.3742     3.3742    -0.0000
  6 C      6.7110     6.0000    -0.7110     1.9117     1.9117     0.0000
  7 O      8.7326     8.0000    -0.7326     1.4864     1.4864     0.0000
  8 C      4.1518     6.0000     1.8482     0.8187     0.8187    -0.0000
  9 C      5.9166     6.0000     0.0834     3.2084     3.2084    -0.0000
 10 O      8.7509     8.0000    -0.7509     1.4081     1.4081    -0.0000
 11 N      6.7551     7.0000     0.2449     3.3320     3.3320     0.0000
 12 C      7.2134     6.0000    -1.2134     3.6131     3.6131    -0.0000
 13 C      6.9029     6.0000    -0.9029     3.8836     3.8836     0.0000
 14 C      6.6728     6.0000    -0.6728     3.7520     3.7520    -0.0000
 15 C      5.7596     6.0000     0.2404     2.6017     2.6017     0.0000
 16 C      7.6777     6.0000    -1.6777     3.4468     3.4468    -0.0000
 17 C      7.1816     6.0000    -1.1816     2.7834     2.7834    -0.0000
 18 C      6.6176     6.0000    -0.6176     3.3270     3.3270    -0.0000
 19 C      6.6609     6.0000    -0.6609     3.4166     3.4166    -0.0000
 20 C      6.2025     6.0000    -0.2025     2.7671     2.7671    -0.0000
 21 C      7.4750     6.0000    -1.4750     3.4623     3.4623     0.0000
 22 H      0.6034     1.0000     0.3966     0.9314     0.9314    -0.0000
 23 H      0.6372     1.0000     0.3628     0.9825     0.9825    -0.0000
 24 H      0.6361     1.0000     0.3639     0.9803     0.9803    -0.0000
 25 H      0.7233     1.0000     0.2767     0.9365     0.9365    -0.0000
 26 H      0.7027     1.0000     0.2973     0.9222     0.9222     0.0000
 27 H      0.7329     1.0000     0.2671     0.8788     0.8788     0.0000
 28 H      0.6890     1.0000     0.3110     0.8157     0.8157     0.0000
 29 H      0.6935     1.0000     0.3065     0.9545     0.9545     0.0000
 30 H      0.7976     1.0000     0.2024     1.0399     1.0399     0.0000
 31 H      0.6497     1.0000     0.3503     0.9354     0.9354    -0.0000
 32 H      0.6667     1.0000     0.3333     0.9830     0.9830     0.0000
 33 H      0.5575     1.0000     0.4425     0.8560     0.8560    -0.0000
 34 H      0.2996     1.0000     0.7004    -0.0824    -0.0824    -0.0000
 35 H      0.4985     1.0000     0.5015     0.6821     0.6821     0.0000
 36 H      0.6543     1.0000     0.3457     0.9597     0.9597     0.0000
 37 H      0.6733     1.0000     0.3267     0.9840     0.9840    -0.0000
 38 H      0.6600     1.0000     0.3400     0.8615     0.8615     0.0000
 39 H      0.6785     1.0000     0.3215     0.8643     0.8643    -0.0000
 40 H      0.6632     1.0000     0.3368     0.8606     0.8606    -0.0000
 41 H      0.6950     1.0000     0.3050     0.8884     0.8884     0.0000
 42 H      0.6941     1.0000     0.3059     0.8550     0.8550     0.0000
 43 H      0.9086     1.0000     0.0914     1.1135     1.1135     0.0000
 44 H      0.6180     1.0000     0.3820     0.9743     0.9743    -0.0000
 45 H      0.6008     1.0000     0.3992     0.9438     0.9438    -0.0000
 46 H      0.6237     1.0000     0.3763     0.9627     0.9627    -0.0000
 47 H      0.8135     1.0000     0.1865     0.8742     0.8742    -0.0000
 48 H      0.5596     1.0000     0.4404     0.6690     0.6690     0.0000
 49 H      0.6736     1.0000     0.3264     0.7581     0.7581    -0.0000
 50 H      0.7919     1.0000     0.2081     1.0034     1.0034    -0.0000
 51 H      0.6870     1.0000     0.3130     0.8828     0.8828     0.0000
 52 H      0.7014     1.0000     0.2986     0.8978     0.8978    -0.0000
 53 H      0.6852     1.0000     0.3148     0.8750     0.8750     0.0000
 54 H      0.6824     1.0000     0.3176     0.8850     0.8850    -0.0000
 55 H      0.6418     1.0000     0.3582     0.9861     0.9861     0.0000
 56 H      0.5987     1.0000     0.4013     0.9294     0.9294     0.0000
 57 H      0.6493     1.0000     0.3507     0.9946     0.9946     0.0000

  Mayer bond orders larger than 0.100000
B(  0-C ,  1-C ) :   0.4930 B(  0-C ,  2-C ) :   0.2200 B(  0-C , 22-H ) :   0.8973 
B(  0-C , 23-H ) :   0.9347 B(  0-C , 24-H ) :   0.9375 B(  1-C ,  2-C ) :   0.4953 
B(  1-C ,  3-C ) :   0.3954 B(  1-C , 25-H ) :   0.9475 B(  1-C , 26-H ) :   0.9322 
B(  2-C ,  3-C ) :   0.4539 B(  2-C , 27-H ) :   0.9841 B(  2-C , 28-H ) :   0.9292 
B(  3-C ,  4-N ) :   0.9491 B(  3-C ,  6-C ) :  -0.1586 B(  3-C , 29-H ) :   0.8820 
B(  3-C , 30-H ) :   0.9642 B(  4-N ,  5-C ) :   0.7912 B(  4-N ,  6-C ) :   0.8930 
B(  4-N ,  8-C ) :   0.2435 B(  5-C ,  6-C ) :  -0.1409 B(  5-C ,  8-C ) :   0.1578 
B(  5-C , 31-H ) :   0.8594 B(  5-C , 32-H ) :   0.9374 B(  5-C , 33-H ) :   0.7211 
B(  6-C ,  7-O ) :   1.3161 B(  6-C ,  8-C ) :  -0.2369 B(  6-C ,  9-C ) :   0.4734 
B(  6-C , 17-C ) :  -0.1990 B(  6-C , 18-C ) :   0.3374 B(  6-C , 34-H ) :  -0.3255 
B(  6-C , 47-H ) :  -0.1594 B(  7-O ,  8-C ) :  -0.2402 B(  8-C ,  9-C ) :   0.1039 
B(  8-C , 10-O ) :  -0.2050 B(  8-C , 12-C ) :   0.1511 B(  8-C , 17-C ) :  -0.2074 
B(  8-C , 18-C ) :   0.1992 B(  8-C , 34-H ) :   0.6974 B(  9-C , 10-O ) :   1.2013 
B(  9-C , 11-N ) :   1.1274 B(  9-C , 12-C ) :  -0.2469 B(  9-C , 13-C ) :  -0.1092 
B(  9-C , 17-C ) :   0.6143 B( 10-O , 11-N ) :   0.1160 B( 11-N , 12-C ) :   0.8360 
B( 11-N , 13-C ) :   1.1146 B( 11-N , 17-C ) :   0.1079 B( 12-C , 35-H ) :   0.7897 
B( 12-C , 36-H ) :   0.8921 B( 12-C , 37-H ) :   0.9207 B( 13-C , 14-C ) :   1.0538 
B( 13-C , 38-H ) :   0.7976 B( 13-C , 39-H ) :   0.8496 B( 14-C , 15-C ) :   0.6791 
B( 14-C , 16-C ) :   0.2816 B( 14-C , 40-H ) :   0.8554 B( 14-C , 41-H ) :   0.9146 
B( 15-C , 16-C ) :   0.2628 B( 15-C , 42-H ) :   0.9342 B( 15-C , 43-H ) :   1.0029 
B( 15-C , 44-H ) :  -0.1031 B( 16-C , 43-H ) :   0.1064 B( 16-C , 44-H ) :   0.9342 
B( 16-C , 45-H ) :   0.9079 B( 16-C , 46-H ) :   0.9255 B( 17-C , 18-C ) :   0.4578 
B( 17-C , 19-C ) :   0.4150 B( 17-C , 34-H ) :  -0.3400 B( 17-C , 47-H ) :   0.9941 
B( 17-C , 48-H ) :   0.7078 B( 18-C , 19-C ) :   0.4763 B( 18-C , 20-C ) :   0.2517 
B( 18-C , 34-H ) :  -0.1207 B( 18-C , 47-H ) :  -0.1277 B( 18-C , 49-H ) :   0.9075 
B( 18-C , 50-H ) :   0.9665 B( 19-C , 20-C ) :   0.5196 B( 19-C , 21-C ) :   0.2451 
B( 19-C , 51-H ) :   0.9187 B( 19-C , 52-H ) :   0.9506 B( 20-C , 21-C ) :   0.4436 
B( 20-C , 50-H ) :   0.1039 B( 20-C , 53-H ) :   0.8944 B( 20-C , 54-H ) :   0.8999 
B( 21-C , 55-H ) :   0.9328 B( 21-C , 56-H ) :   0.9056 B( 21-C , 57-H ) :   0.9444 


-------
TIMINGS
-------

Total SCF time: 0 days 0 hours 1 min 16 sec 

Total time                  ....      76.522 sec
Sum of individual times     ....      74.538 sec  ( 97.4%)

SCF preparation             ....       6.304 sec  (  8.2%)
Fock matrix formation       ....      58.496 sec  ( 76.4%)
  Startup                   ....       0.572 sec  (  1.0% of F)
  Split-RI-J                ....       7.934 sec  ( 13.6% of F)
  XC integration            ....      43.535 sec  ( 74.4% of F)
    XC Preparation          ....       0.000 sec  (  0.0% of XC)
    Basis function eval.    ....       0.621 sec  (  1.4% of XC)
    Density eval.           ....       1.757 sec  (  4.0% of XC)
    XC-Functional eval.     ....       0.042 sec  (  0.1% of XC)
    XC-Potential eval.      ....       2.254 sec  (  5.2% of XC)
  CPCM terms                ....       5.064 sec  (  8.7% of F)
Diagonalization             ....       0.000 sec  (  0.0%)
Density matrix formation    ....       1.489 sec  (  1.9%)
Total Energy calculation    ....       0.832 sec  (  1.1%)
Population analysis         ....       0.402 sec  (  0.5%)
Orbital Transformation      ....       0.839 sec  (  1.1%)
Orbital Orthonormalization  ....       0.000 sec  (  0.0%)
DIIS solution               ....       4.254 sec  (  5.6%)
SOSCF solution              ....       1.922 sec  (  2.5%)
Finished LeanSCF after  76.9 sec

Maximum memory used throughout the entire LEANSCF-calculation: 157.1 MB

-------------------------   --------------------
FINAL SINGLE POINT ENERGY      -967.953607843766
-------------------------   --------------------



           ************************************************************
           *        Program running with 64 parallel MPI-processes    *
           *              working on a common directory               *
           ************************************************************

------------------------------------------------------------------------------
                              ORCA PROPERTY CALCULATIONS
------------------------------------------------------------------------------

GBWName                                 ... single_point_tzvpd.gbw
Number of atoms                         ...     58
Number of basis functions               ...   1144
Max core memory                         ...   2000 MB

Electric properties:
Dipole moment                           ... YES
Quadrupole moment                       ...  NO
Static polarizability (Dipole/Dipole)   ...  NO
Static polarizability (Dipole/Quad.)    ...  NO
Static polarizability (Quad./Quad.)     ...  NO
Static polarizability (Velocity)        ...  NO

Atomic electric properties:
Dipole moment                           ...  NO
Quadrupole moment                       ...  NO
Static polarizability                   ...  NO

Choice of electric origin               ... Center of mass
Position of electric origin             ...    11.658211     7.258748     0.711828

General magnetic properties:
Magnetizability                         ...  NO

EPR properties:
g-Tensor (aka g-matrix)                 ...  NO
Zero-Field splitting spin-orbit         ...  NO
Zero-field splitting spin-spin          ...  NO
Hyperfine couplings                     ...  NO (   0 nuclei)
Quadrupole couplings                    ...  NO (   0 nuclei)
Contact density                         ...  NO (   0 nuclei)

NMR properties:
Chemical shifts                         ...  NO (   0 nuclei)
Spin-rotation constants                 ...  NO (   0 nuclei)
Spin-spin couplings                     ...  NO (   0 nuclei,    0 pairs)

Choice of magnetic origin               ... GIAO
Position of magnetic origin             ...     0.000000     0.000000     0.000000

Properties with geometric perturbations:
SCF Hessian                             ...  NO
IR spectrum                             ...  NO
VCD spectrum                            ...  NO
X-ray spectroscopy properties:
SCF XES/XAS/RIXS spectra                ...  NO


-------------
DIPOLE MOMENT
-------------

Method             : SCF
Type of density    : Electron Density
Multiplicity       :   1
Irrep              :   0
Energy             :  -967.9536078437661217 Eh
Relativity type    : 
Basis              : AO
                                X                 Y                 Z
Electronic contribution:      1.330183925       0.307920076       2.281729294
Nuclear contribution   :     -2.997202132       2.083809789      -4.347381489
                        -----------------------------------------
Total Dipole Moment    :     -1.667018207       2.391729865      -2.065652195
                        -----------------------------------------
Magnitude (a.u.)       :      3.572987607
Magnitude (Debye)      :      9.081812754



--------------------
Rotational spectrum 
--------------------
 
Rotational constants in cm-1:             0.007469             0.005465             0.003466 
Rotational constants in MHz :           223.916987           163.847094           103.911135 

Dipole components along the rotational axes: 
x,y,z [a.u.] :     1.042398     1.908679    -2.834888 
x,y,z [Debye]:     2.649565     4.851476    -7.205714 

 

Dipole moment calculation done in   0.2 sec 

Maximum memory used throughout the entire PROP-calculation: 123.9 MB

--------------------------------
SUGGESTED CITATIONS FOR THIS RUN
--------------------------------

Below you find a list of papers that are relevant to this ORCA run
We neither can nor want to force you to cite these papers, but we appreciate if you do
You receive ORCA, which is the product of decades of hard work by many enthusiastic individuals, for free
The only thing we kindly ask in return is that you cite our papers,
We deeply appreciate it, if you show your appreciation for ORCA by not just citing the generic ORCA reference.

Please note that relegating all ORCA citations to the supporting information does *not* help us.
SI sections are not indexed - citations you put there will not count into any citation statistics
But we need these citations in order to attract the funding resources that allow us to do what we are doing

Therefore, if you are a happy ORCA user, please consider citing a few of the papers listed below in the main body of your paper

In addition to the list printed below, the program has created the file single_point_tzvpd.bibtex that contains the list in bibtex format
You can import this file easily into all common literature databanks and citation aid programs


List of essential papers. We consider these as the minimum necessary citations

  1. Neese,F.
     Software update: the ORCA program system, version 5.0
     WIRES Comput. Molec. Sci., 2022 12(1)e1606
     doi.org/10.1002/wcms.1606

List of papers to cite with high priority. The work reported in these papers was absolutely
necessary for this run to complete.
Our perspective: the developers of density functionals and basis sets usually get cited in chemistry papers
Good! But without the algorithms to do something with them, the functionals or basis sets would not do anything.
Hence, in our opinion, the algorithm design and method developments papers are equally worthy of getting cited

  1. Neese,F.
     An improvement of the resolution of the identity approximation for the formation of the Coulomb matrix
     J. Comp. Chem., 2003 24(14)1740-1747
     doi.org/10.1002/jcc.10318
  2. Garcia-Rates,M.; Neese,F.
     Effect of the Solute Cavity on the Solvation Energy and its Derivatives within the Framework of the Gaussian Charge Scheme
     J. Comput. Chem., 2020 41 922-939
     doi.org/10.1002/jcc.26139
  3. Neese,F.
     The SHARK Integral Generation and Digestion System
     J. Comp. Chem., 2022  1-16
     doi.org/10.1002/jcc.26942

List of suggested additional citations. These are papers that are important in the 'surrounding' of 
of this run, or papers that preceded the highly important papers. If you like your results we are grateful for a citation.

  1. Neese,F.
     The ORCA program system
     WIRES Comput. Molec. Sci., 2012 2(1)73-78
     doi.org/10.1002/wcms.81
  2. Neese,F.
     Software update: the ORCA program system, version 4.0
     WIRES Comput. Molec. Sci., 2018 8(1)1-6
     doi.org/10.1002/wcms.1327
  3. Neese,F.; Wennmohs,F.; Becker,U.; Riplinger,C.
     The ORCA quantum chemistry program package
     J. Chem. Phys., 2020 152 Art. No. L224108
     doi.org/10.1063/5.0004608

List of optional additional citations

  1. Neese,F.
     Approximate second-order SCF convergence for spin unrestricted wavefunctions
     Chem. Phys. Lett., 2000 325(1-3)93-98
     doi.org/10.1016/s0009-2614(00)00662-x

Timings for individual modules:

Sum of individual times          ...      100.776 sec (=   1.680 min)
Startup calculation              ...        8.293 sec (=   0.138 min)   8.2 %
SCF iterations                   ...       86.503 sec (=   1.442 min)  85.8 %
Property calculations            ...        5.980 sec (=   0.100 min)   5.9 %
                             ****ORCA TERMINATED NORMALLY****
TOTAL RUN TIME: 0 days 0 hours 1 minutes 44 seconds 284 msec
