20
energy: -237.1539373516889952
C  -2.8939745714273899  0.4928846794587600  -0.6991816034961800
C  -1.8760783806851800  -0.1896794348462300  0.2188327327429300
C  -0.4332597053500000  0.2647944759622200  -0.0305417750622200
C  0.5881558669763300  -0.4186154699612400  0.8869987735959500
C  2.0370827893766501  0.0613895255420200  0.7075686652950300
C  2.6540205134876298  -0.2789763040480500  -0.6535661917842600
H  -2.6786561070721500  0.2823865812936900  -1.7580717633414200
H  -3.9183284229421398  0.1498355274833300  -0.4931105895698500
H  -2.8760268028967202  1.5859991441367300  -0.5697989292646800
H  -1.9386100198717799  -1.2839188208511101  0.0890566156171500
H  -2.1406735580080700  0.0048817690465400  1.2725598801808500
H  -0.1773081081058300  0.0758413180804300  -1.0870773281379700
H  -0.3680754718069500  1.3595703797704799  0.1065881089186800
H  0.5459471031999200  -1.5112957102416400  0.7279148443995900
H  0.2864966733188900  -0.2537265721112500  1.9358585115758300
H  2.0782850590936399  1.1529655130697001  0.8670947640963900
H  2.6572015337234700  -0.3836734717207400  1.5030923451295100
H  2.1176746430096700  0.2078323939723700  -1.4808494662322700
H  3.7032587541833699  0.0462343861455600  -0.7064468402157800
H  2.6328682117960001  -1.3647299101815900  -0.8369207544472600
