
                                 *****************
                                 * O   R   C   A *
                                 *****************

                                            #,                                       
                                            ###                                      
                                            ####                                     
                                            #####                                    
                                            ######                                   
                                           ########,                                 
                                     ,,################,,,,,                         
                               ,,#################################,,                 
                          ,,##########################################,,             
                       ,#########################################, ''#####,          
                    ,#############################################,,   '####,        
                  ,##################################################,,,,####,       
                ,###########''''           ''''###############################       
              ,#####''   ,,,,##########,,,,          '''####'''          '####       
            ,##' ,,,,###########################,,,                        '##       
           ' ,,###''''                  '''############,,,                           
         ,,##''                                '''############,,,,        ,,,,,,###''
      ,#''                                            '''#######################'''  
     '                                                          ''''####''''         
             ,#######,   #######,   ,#######,      ##                                
            ,#'     '#,  ##    ##  ,#'     '#,    #''#        ,####,   ,####,        
            ##       ##  ##   ,#'  ##            #'  '#       #'       #'  '#        
            ##       ##  #######   ##           ,######,      #####,   #    #        
            '#,     ,#'  ##    ##  '#,     ,#' ,#      #,     #,   #   #,  ,#        
             '#######'   ##     ##  '#######'  #'      '#     '####' # '####'        



                #########################################################
                #                        -***-                          #
                #          Department of theory and spectroscopy        #
                #                                                       #
                #                      Frank Neese                      #
                #                                                       #
                #     Directorship, Architecture, Infrastructure        #
                #                    SHARK, DRIVERS                     #
                #        Core code/Algorithms in most modules           #
                #                                                       #
                #        Max Planck Institute fuer Kohlenforschung      #
                #                Kaiser Wilhelm Platz 1                 #
                #                 D-45470 Muelheim/Ruhr                 #
                #                      Germany                          #
                #                                                       #
                #                  All rights reserved                  #
                #                        -***-                          #
                #########################################################


                         Program Version 6.0.0  -   RELEASE  -


 With contributions from (in alphabetic order):
   Daniel Aravena         : Magnetic Suceptibility
   Michael Atanasov       : Ab Initio Ligand Field Theory (pilot matlab implementation)
   Alexander A. Auer      : GIAO ZORA, VPT2 properties, NMR spectrum
   Ute Becker             : All parallelization in ORCA, NUMFREQ, NUMCALC
   Giovanni Bistoni       : ED, misc. LED, open-shell LED, HFLD
   Martin Brehm           : Molecular dynamics
   Dmytro Bykov           : pre 5.0 version of the SCF Hessian
   Marcos Casanova-Páez   : Triplet and SCS-CIS(D). UHF-(DLPNO)-IP/EA/STEOM-CCSD. UHF-CVS-IP/STEOM-CCSD
   Vijay G. Chilkuri      : MRCI spin determinant printing, contributions to CSF-ICE
   Pauline Colinet        : FMM embedding
   Dipayan Datta          : RHF DLPNO-CCSD density
   Achintya Kumar Dutta   : EOM-CC, STEOM-CC
   Nicolas Foglia         : Exact transition moments, OPA infrastructure, MCD improvements
   Dmitry Ganyushin       : Spin-Orbit,Spin-Spin,Magnetic field MRCI
   Miquel Garcia          : C-PCM and meta-GGA Hessian, CCSD/C-PCM, Gaussian charge scheme
   Tiago L. C. Gouveia    : GS-ROHF, GS-ROCIS
   Yang Guo               : DLPNO-NEVPT2, F12-NEVPT2, CIM, IAO-localization
   Andreas Hansen         : Spin unrestricted coupled pair/coupled cluster methods
   Ingolf Harden          : AUTO-CI MPn and infrastructure 
   Benjamin Helmich-Paris : MC-RPA, TRAH-(SCF,CASSCF), AVAS, COSX integrals, SCF dyn. polar.
   Lee Huntington         : MR-EOM, pCC
   Robert Izsak           : Overlap fitted RIJCOSX, COSX-SCS-MP3, EOM
   Riya Kayal             : Wick's Theorem for AUTO-CI, AUTO-CI UHF-CCSDT
   Emily Kempfer          : AUTO-CI, RHF CISDT and CCSDT
   Christian Kollmar      : KDIIS, OOCD, Brueckner-CCSD(T), CCSD density, CASPT2, CASPT2-K, improved NEVPT2
   Axel Koslowski         : Symmetry handling
   Simone Kossmann        : Meta GGA functionals, TD-DFT gradient, OOMP2, (MP2 Hessian; deprecated post 5.0)
   Lucas Lang             : DCDCAS
   Marvin Lechner         : AUTO-CI (C++ implementation), FIC-MRCC
   Spencer Leger          : CASSCF response
   Dagmar Lenk            : GEPOL surface, SMD, ORCA-2-JSON
   Dimitrios Liakos       : Extrapolation schemes; Compound Job, initial MDCI parallelization
   Dimitrios Manganas     : Further ROCIS development; embedding schemes. LFT, Crystal Embedding
   Dimitrios Pantazis     : SARC Basis sets
   Anastasios Papadopoulos: AUTO-CI, single reference methods and gradients
   Taras Petrenko         : pre 6.0 DFT Hessian and TD-DFT gradient, (ASA, deprecated), ECA, 1-Electron XAS/XES, NRVS
   Peter Pinski           : DLPNO-MP2, DLPNO-MP2 Gradient
   Christoph Reimann      : Effective Core Potentials
   Marius Retegan         : Local ZFS, SOC
   Christoph Riplinger    : Optimizer, TS searches, QM/MM, DLPNO-CCSD(T), (RO)-DLPNO pert. Triples
   Michael Roemelt        : Original ROCIS implementation
   Masaaki Saitow         : Open-shell DLPNO-CCSD energy and density
   Barbara Sandhoefer     : DKH picture change effects
   Kantharuban Sivalingam : CASSCF convergence/infrastructure, NEVPT2 and variants, FIC-MRCI
   Bernardo de Souza      : ESD, SOC TD-DFT
   Georgi Stoychev        : AutoAux, RI-MP2 NMR, DLPNO-MP2 response, X2C
   Van Anh Tran           : RI-MP2 g-tensors
   Willem Van den Heuvel  : Paramagnetic NMR
   Zikuan Wang            : NOTCH, Electric field optimization 
   Frank Wennmohs         : Technical directorship and infrastructure
   Hang Xu                : AUTO-CI-Response properties 


 We gratefully acknowledge several colleagues who have allowed us to
 interface, adapt or use parts of their codes:
   Stefan Grimme, W. Hujo, H. Kruse, P. Pracht,  : VdW corrections, initial TS optimization,
                  C. Bannwarth, S. Ehlert,         DFT functionals, gCP, sTDA/sTD-DF
                  L. Wittmann, M. Mueller
   Ed Valeev, F. Pavosevic, A. Kumar             : LibInt (2-el integral package), F12 methods
   Garnet Chan, S. Sharma, J. Yang, R. Olivares  : DMRG
   Ulf Ekstrom                                   : XCFun DFT Library
   Mihaly Kallay                                 : mrcc  (arbitrary order and MRCC methods)
   Frank Weinhold                                : gennbo (NPA and NBO analysis)
   Simon Mueller                                 : openCOSMO-RS
   Christopher J. Cramer and Donald G. Truhlar   : smd solvation model
   Lars Goerigk                                  : TD-DFT with DH, B97 family of functionals
   V. Asgeirsson, H. Jonsson                     : NEB implementation
   FAccTs GmbH                                   : IRC, NEB, NEB-TS, DLPNO-Multilevel, CI-OPT
                                                   MM, QMMM, 2- and 3-layer-ONIOM, Crystal-QMMM,
                                                   LR-CPCM, SF, NACMEs, symmetry and pop. for TD-DFT,
                                                   nearIR, NL-DFT gradient (VV10), updates on ESD,
                                                   ML-optimized integration grids, MBIS, APM,
                                                   GOAT, DOCKER, SOLVATOR, interface openCOSMO-RS
   S Lehtola, MJT Oliveira, MAL Marques          : LibXC Library
   Liviu Ungur et al                             : ANISO software


 Your calculation uses the libint2 library for the computation of 2-el integrals
 For citations please refer to: http://libint.valeyev.net

 Your ORCA version has been built with support for libXC version: 6.2.2
 For citations please refer to: https://libxc.gitlab.io

 This ORCA versions uses:
   CBLAS   interface :  Fast vector & matrix operations
   LAPACKE interface :  Fast linear algebra routines
   SCALAPACK package :  Parallel linear algebra routines
   Shared memory     :  Shared parallel matrices
   BLAS/LAPACK       :  OpenBLAS 0.3.27  USE64BITINT DYNAMIC_ARCH NO_AFFINITY Zen SINGLE_THREADED
        Core in use  :  Zen
   Copyright (c) 2011-2014, The OpenBLAS Project


NOTE: MaxCore=2000 MB was set to SCF,MP2,MDCI,CIPSI,MRCI and CIS
      => If you want to overwrite this, your respective input block should be placed after the MaxCore statement


***************************************
The coordinates will be read from file: DMDOH_c000.xyz
***************************************


Warning: RI is on but no J-basis has been assigned. Assigning Def2/J (nothing to worry about!)
================================================================================

----- Orbital basis set information -----
Your calculation utilizes the basis: def2-TZVPD
   F. Weigend and R. Ahlrichs, Phys. Chem. Chem. Phys. 7, 3297 (2005).
   D. Rappoport and F. Furche, J. Chem. Phys. 133, 134105 (2010)
   D. Rappoport, J. Chem. Phys. 155, 124102 (2021).

----- AuxJ basis set information -----
Your calculation utilizes the auxiliary basis: def2/J
   F. Weigend, Phys. Chem. Chem. Phys. 8, 1057 (2006).

================================================================================
                                        WARNINGS
                       Please study these warnings very carefully!
================================================================================


================================================================================
                                       INPUT FILE
================================================================================
NAME = input.dat
|  1> %MaxCore 2000
|  2> 
|  3> %base "single_point_tzvpd"
|  4> 
|  5> %cpcm
|  6> radius[1]  1.3
|  7> radius[2]  1.601
|  8> radius[5]  2.048
|  9> radius[6]  2.0
| 10> radius[7]  1.83
| 11> radius[8]  1.72
| 12> radius[9]  1.72
| 13> radius[10]  1.771
| 14> radius[13]  2.152
| 15> radius[14]  2.2
| 16> radius[15]  2.106
| 17> radius[16]  2.16
| 18> radius[17]  2.05
| 19> radius[18]  2.184
| 20> radius[22]  2.261
| 21> radius[26]  2.195
| 22> radius[27]  2.153
| 23> radius[31]  2.172
| 24> radius[32]  2.7
| 25> radius[33]  2.148
| 26> radius[34]  2.2
| 27> radius[35]  2.16
| 28> radius[36]  2.354
| 29> radius[49]  2.245
| 30> radius[50]  2.55
| 31> radius[51]  2.402
| 32> radius[53]  2.32
| 33> radius[54]  2.524
| 34> radius[80]  1.978
| 35> radius[82]  2.36
| 36> radius[86]  2.573
| 37> cut_area 0.03571064825863687
| 38> end
| 39> 
| 40> ! CPCM BP86 def2-TZVPD SP PAL64
| 41> 
| 42> %base "single_point_tzvpd"
| 43> 
| 44> * xyzfile 0 1 DMDOH_c000.xyz
| 45> 
| 46>                          ****END OF INPUT****
================================================================================

                       ****************************
                       * Single Point Calculation *
                       ****************************

---------------------------------
CARTESIAN COORDINATES (ANGSTROEM)
---------------------------------
  C     55.920000   49.700000   46.280000
  H     56.470000   50.010000   47.180000
  C     52.090000   53.940000   47.360000
  H     53.030000   54.490000   47.250000
  H     51.270000   54.480000   46.850000
  C     51.590000   54.000000   48.770000
  H     50.590000   53.560000   48.800000
  H     51.420000   55.000000   49.190000
  C     52.070000   52.470000   46.740000
  H     52.770000   51.710000   47.100000
  H     51.130000   51.990000   47.060000
  C     52.010000   52.350000   45.190000
  H     51.370000   53.130000   44.750000
  H     51.620000   51.390000   44.840000
  C     53.410000   52.290000   44.670000
  H     53.350000   52.190000   43.580000
  H     53.870000   53.240000   44.950000
  C     54.050000   49.910000   43.890000
  H     53.010000   49.960000   43.540000
  H     54.390000   48.900000   44.160000
  H     54.770000   50.250000   43.130000
  C     52.870000   48.230000   48.320000
  H     52.580000   47.960000   49.340000
  H     52.750000   47.180000   48.000000
  C     51.670000   48.890000   47.620000
  H     51.340000   49.780000   48.180000
  H     51.820000   49.140000   46.560000
  C     50.280000   48.030000   47.580000
  H     49.970000   47.780000   48.610000
  H     50.380000   47.050000   47.110000
  C     49.110000   48.690000   46.830000
  H     48.970000   49.660000   47.320000
  H     49.430000   48.970000   45.820000
  C     47.890000   47.690000   46.740000
  H     48.300000   46.670000   46.650000
  H     47.230000   48.000000   45.920000
  C     54.470000   50.210000   48.870000
  H     53.920000   50.160000   49.820000
  H     54.270000   51.160000   48.360000
  H     55.540000   50.190000   49.120000
  C     56.880000   49.030000   45.350000
  H     56.410000   48.710000   44.410000
  H     57.540000   49.830000   44.990000
  C     57.720000   47.850000   46.040000
  H     58.290000   47.390000   45.220000
  H     57.020000   47.140000   46.510000
  C     59.480000   47.560000   47.770000
  H     60.320000   48.110000   48.210000
  H     59.700000   46.690000   47.130000
  C     58.620000   47.060000   49.000000
  H     58.920000   47.530000   49.950000
  H     57.610000   47.490000   49.050000
  C     58.690000   45.540000   49.360000
  H     59.750000   45.390000   49.580000
  H     58.350000   45.120000   48.400000
  C     57.950000   45.060000   50.550000
  H     58.060000   45.700000   51.440000
  H     56.850000   45.100000   50.460000
  C     58.390000   43.560000   50.920000
  H     59.450000   43.390000   51.120000
  H     58.120000   42.890000   50.100000
  C     57.430000   43.080000   52.170000
  H     56.350000   43.080000   51.990000
  H     57.730000   42.070000   52.480000
  H     57.510000   43.850000   52.940000
  C     52.490000   53.280000   49.750000
  H     52.340000   52.220000   49.490000
  H     53.530000   53.470000   49.470000
  C     52.340000   53.510000   51.340000
  H     51.260000   53.600000   51.490000
  H     52.820000   54.440000   51.670000
  C     52.780000   52.290000   52.160000
  H     52.700000   52.560000   53.220000
  H     53.840000   52.010000   52.070000
  H     52.070000   51.460000   52.180000
  C     47.080000   47.830000   47.970000
  H     47.490000   47.130000   48.710000
  H     47.000000   48.840000   48.390000
  C     45.760000   47.270000   47.870000
  H     45.170000   47.870000   47.180000
  H     45.170000   47.260000   48.800000
  C     45.450000   45.730000   47.220000
  H     44.370000   45.650000   47.040000
  H     45.880000   44.950000   47.850000
  H     45.970000   45.660000   46.250000
  C     54.880000   48.730000   46.930000
  O     54.630000   47.710000   46.280000
  N     54.120000   49.020000   48.030000
  N     54.210000   51.010000   44.870000
  C     55.250000   51.030000   45.850000
  O     55.540000   51.930000   46.530000
  O     58.630000   48.410000   46.960000

----------------------------
CARTESIAN COORDINATES (A.U.)
----------------------------
  NO LB      ZA    FRAG     MASS         X           Y           Z
   0 C     6.0000    0    12.011  105.673485   93.919389   87.456525
   1 H     1.0000    0     1.008  106.712835   94.505204   89.157279
   2 C     6.0000    0    12.011   98.435834  101.931828   89.497430
   3 H     1.0000    0     1.008  100.212177  102.971177   89.289560
   4 H     1.0000    0     1.008   96.886259  102.952280   88.533669
   5 C     6.0000    0    12.011   97.490971  102.045211   92.161944
   6 H     1.0000    0     1.008   95.601245  101.213732   92.218635
   7 H     1.0000    0     1.008   97.169718  103.934937   92.955629
   8 C     6.0000    0    12.011   98.398040   99.153930   88.325799
   9 H     1.0000    0     1.008   99.720848   97.717738   89.006101
  10 H     1.0000    0     1.008   96.621697   98.246862   88.930512
  11 C     6.0000    0    12.011   98.284656   98.927163   85.396724
  12 H     1.0000    0     1.008   97.075231  100.401149   84.565244
  13 H     1.0000    0     1.008   97.547663   97.113026   84.735320
  14 C     6.0000    0    12.011  100.930273   98.813780   84.414066
  15 H     1.0000    0     1.008  100.816889   98.624807   82.354265
  16 H     1.0000    0     1.008  101.799547  100.609019   84.943190
  17 C     6.0000    0    12.011  102.139698   94.316231   82.940080
  18 H     1.0000    0     1.008  100.174382   94.410718   82.278676
  19 H     1.0000    0     1.008  102.782204   92.407608   83.450306
  20 H     1.0000    0     1.008  103.500300   94.958738   81.503888
  21 C     6.0000    0    12.011   99.909821   91.141491   91.311567
  22 H     1.0000    0     1.008   99.361800   90.631265   93.239087
  23 H     1.0000    0     1.008   99.683054   89.157279   90.706854
  24 C     6.0000    0    12.011   97.642149   92.388711   89.988758
  25 H     1.0000    0     1.008   97.018540   94.070567   91.047005
  26 H     1.0000    0     1.008   97.925608   92.861142   87.985649
  27 C     6.0000    0    12.011   95.015430   90.763546   89.913169
  28 H     1.0000    0     1.008   94.429615   90.291115   91.859587
  29 H     1.0000    0     1.008   95.204403   88.911615   89.024998
  30 C     6.0000    0    12.011   92.804450   92.010765   88.495875
  31 H     1.0000    0     1.008   92.539889   93.843800   89.421841
  32 H     1.0000    0     1.008   93.409163   92.539889   86.587251
  33 C     6.0000    0    12.011   90.498985   90.121039   88.325799
  34 H     1.0000    0     1.008   91.273772   88.193519   88.155724
  35 H     1.0000    0     1.008   89.251765   90.706854   86.776224
  36 C     6.0000    0    12.011  102.933383   94.883149   92.350916
  37 H     1.0000    0     1.008  101.894033   94.788663   94.146156
  38 H     1.0000    0     1.008  102.555437   96.678389   91.387156
  39 H     1.0000    0     1.008  104.955389   94.845355   92.823348
  40 C     6.0000    0    12.011  107.487622   92.653272   85.699080
  41 H     1.0000    0     1.008  106.599451   92.048560   83.922738
  42 H     1.0000    0     1.008  108.734842   94.165053   85.018779
  43 C     6.0000    0    12.011  109.074992   90.423396   87.002991
  44 H     1.0000    0     1.008  110.152136   89.554121   85.453416
  45 H     1.0000    0     1.008  107.752184   89.081690   87.891162
  46 C     6.0000    0    12.011  112.400910   89.875375   90.272217
  47 H     1.0000    0     1.008  113.988280   90.914724   91.103697
  48 H     1.0000    0     1.008  112.816650   88.231313   89.062793
  49 C     6.0000    0    12.011  110.775746   88.930512   92.596581
  50 H     1.0000    0     1.008  111.342664   89.818683   94.391820
  51 H     1.0000    0     1.008  108.867123   89.743094   92.691067
  52 C     6.0000    0    12.011  110.908027   86.058128   93.276882
  53 H     1.0000    0     1.008  112.911137   85.774669   93.692622
  54 H     1.0000    0     1.008  110.265520   85.264443   91.462745
  55 C     6.0000    0    12.011  109.509629   85.151060   95.525656
  56 H     1.0000    0     1.008  109.717499   86.360484   97.207512
  57 H     1.0000    0     1.008  107.430931   85.226649   95.355581
  58 C     6.0000    0    12.011  110.341109   82.316470   96.224855
  59 H     1.0000    0     1.008  112.344219   81.995217   96.602800
  60 H     1.0000    0     1.008  109.830883   81.050354   94.675279
  61 C     6.0000    0    12.011  108.526972   81.409402   98.587012
  62 H     1.0000    0     1.008  106.486068   81.409402   98.246862
  63 H     1.0000    0     1.008  109.093890   79.500778   99.172828
  64 H     1.0000    0     1.008  108.678150   82.864491  100.042102
  65 C     6.0000    0    12.011   99.191725  100.684608   94.013875
  66 H     1.0000    0     1.008   98.908266   98.681499   93.522546
  67 H     1.0000    0     1.008  101.157040  101.043656   93.484752
  68 C     6.0000    0    12.011   98.908266  101.119245   97.018540
  69 H     1.0000    0     1.008   96.867362  101.289321   97.301999
  70 H     1.0000    0     1.008   99.815334  102.876691   97.642149
  71 C     6.0000    0    12.011   99.739745   98.813780   98.568115
  72 H     1.0000    0     1.008   99.588567   99.324006  100.571225
  73 H     1.0000    0     1.008  101.742855   98.284656   98.398040
  74 H     1.0000    0     1.008   98.398040   97.245307   98.605910
  75 C     6.0000    0    12.011   88.968306   90.385601   90.650163
  76 H     1.0000    0     1.008   89.743094   89.062793   92.048560
  77 H     1.0000    0     1.008   88.817128   92.294224   91.443848
  78 C     6.0000    0    12.011   86.473868   89.327354   90.461190
  79 H     1.0000    0     1.008   85.358929   90.461190   89.157279
  80 H     1.0000    0     1.008   85.358929   89.308457   92.218635
  81 C     6.0000    0    12.011   85.888053   86.417176   89.232868
  82 H     1.0000    0     1.008   83.847149   86.265998   88.892717
  83 H     1.0000    0     1.008   86.700635   84.943190   90.423396
  84 H     1.0000    0     1.008   86.870710   86.284895   87.399834
  85 C     6.0000    0    12.011  103.708170   92.086355   88.684847
  86 O     8.0000    0    15.999  103.235739   90.158834   87.456525
  87 N     7.0000    0    14.007  102.271978   92.634375   90.763546
  88 N     7.0000    0    14.007  102.442054   96.394930   84.792012
  89 C     6.0000    0    12.011  104.407369   96.432725   86.643943
  90 O     8.0000    0    15.999  104.955389   98.133478   87.928957
  91 O     8.0000    0    15.999  110.794643   91.481642   88.741539

--------------------------------
INTERNAL COORDINATES (ANGSTROEM)
--------------------------------
 C      0   0   0     0.000000000000     0.00000000     0.00000000
 H      1   0   0     1.099363452185     0.00000000     0.00000000
 C      1   2   0     5.814886069391    88.38739267     0.00000000
 H      3   1   2     1.094623222849    77.41388661    59.49849687
 H      3   1   2     1.106390527797   139.32617833   165.90192280
 C      3   1   2     1.497230777135   115.09290584   311.78867535
 H      6   3   1     1.092931836850   108.37716059   257.87684331
 H      6   3   1     1.097861557757   116.64659610   143.06702356
 C      3   1   2     1.595524991970    42.63245786   213.66500129
 H      9   3   1     1.094166349327   120.27001023    32.03327915
 H      9   3   1     1.102905254317   107.39229088   143.24336503
 C      9   3   1     1.555795616397   117.30231861   258.34498367
 H     12   9   3     1.100727032465   111.46995338   322.73774081
 H     12   9   3     1.093709284956   113.59525429   202.20547555
 C     12   9   3     1.494657151323   108.27529291    91.12722545
 H     15  12   9     1.096220780682   107.35710619   179.13415643
 H     15  12   9     1.092016483392   105.69010359   297.60458256
 C     16  15  12     2.405098750571    86.69714111   252.72177909
 H     18  16  15     1.098453458277    68.91328732   111.65681231
 H     18  16  15     1.099363452185   173.02331182   352.17920095
 H     18  16  15     1.100727032465    78.96338904   231.38488113
 C     10   9   3     3.689010707493   141.38811345   129.99442139
 H     22  10   9     1.094257739292   122.26582861   281.87862086
 H     22  10   9     1.104219181141   142.96208662    70.07123845
 C     22  10   9     1.538050714378    54.79766423    13.17246946
 H     25  22  10     1.102088925632   110.41970793   301.55569317
 H     25  22  10     1.099363452185   115.46467021    67.54052693
 C     25  22  10     1.635022935619   116.66113604   187.66497083
 H     28  25  22     1.104309739158   109.56692929    57.46304921
 H     28  25  22     1.091466902842   113.88578153   302.78607093
 C     28  25  22     1.538505768595   115.64525972   182.13870203
 H     31  28  25     1.095718942065   105.00670816   303.45447491
 H     31  28  25     1.095855829934   109.68426140    53.41721563
 C     31  28  25     1.580031645253   110.08749743   174.03474464
 H     34  31  28     1.102995920210   107.63239982   326.18595483
 H     34  31  28     1.097314904665   109.15848781   200.64766675
 C     22  10   9     2.604400122869    50.89937517   208.08448963
 H     37  22  10     1.098863048792    80.82151008   106.27239182
 H     37  22  10     1.096631205100   116.63748054   357.86252438
 H     37  22  10     1.098999545041   129.22283585   210.57673252
 C      1   2   3     1.495125412800   108.32184391   154.48030857
 H     41   1   2     1.098590005416   112.83383584   181.38061087
 H     41   1   2     1.097816013729   105.27416202   290.49346074
 C     41   1   2     1.604400199451   113.46846003    52.35795223
 H     44  41   1     1.099499886312   104.97422450   174.04609013
 H     44  41   1     1.102270384252   108.94307182    53.70104312
 C     44  41   1     2.484874242291   139.12007160   292.22611956
 H     47  44  41     1.096220780682   139.78507505   331.84448434
 H     47  44  41     1.102225022398    80.16784040   208.92534479
 C     47  44  41     1.581929201956   101.13737918   102.24345789
 H     50  47  44     1.101544370418   112.80816165   222.32845333
 H     50  47  44     1.098863048792   114.29113645   326.35104297
 C     50  47  44     1.563617600310   117.51174863   104.38716292
 H     53  50  47     1.092931836850   102.89593268    60.13846039
 H     53  50  47     1.101635148314    98.98437369   301.78345417
 C     53  50  47     1.481249472574   118.52952977   176.84807963
 H     56  53  50     1.101725918729   114.25905710   315.41524009
 H     56  53  50     1.104400289750   114.85871881    67.94455649
 C     56  53  50     1.606393476082   110.53579430   191.76024266
 H     59  56  53     1.092016483392   116.96357451    57.66704994
 H     59  56  53     1.092794582710   109.38979422   296.72021602
 C     59  56  53     1.647573974060   106.68998052   184.47465647
 H     62  59  56     1.094897255454   116.74489677    59.25564411
 H     62  59  56     1.098271369016   108.83899225   182.32366154
 H     62  59  56     1.091879114188   106.67181533   307.48345569
 C      6   3   1     1.512878051926   113.09742540    19.57001181
 H     66   6   3     1.101680534456   102.94610412   289.77047698
 H     66   6   3     1.093663568013   108.49248474    39.18788470
 C     66   6   3     1.613536488586   121.00955226   165.32407740
 H     69  66   6     1.094074951729   103.80366849    37.48104578
 H     69  66   6     1.097360469490   112.11556331   280.32191587
 C     69  66   6     1.534405422305   112.74431874   151.70356155
 H     72  69  66     1.096767979110   107.44810910   176.67558968
 H     72  69  66     1.100045453606   115.78366030    63.18196892
 H     72  69  66     1.092428487362   115.30947880   283.53511399
 C     34  31  28     1.479391766910   108.39160097    86.35257623
 H     76  34  31     1.098043714977   107.19043558   271.04124879
 H     76  34  31     1.096767979110   116.45352619    35.82088887
 C     76  34  31     1.437358688706   114.08581242   163.55688844
 H     79  76  34     1.088209538646   109.09933955   291.17985029
 H     79  76  34     1.101408189546   115.89561273   173.65333388
 C     79  76  34     1.700058822512   123.16015186    46.40535014
 H     82  79  76     1.097816013729   107.94402307   193.40458098
 H     82  79  76     1.090962877462   110.79282057    66.04483528
 H     82  79  76     1.102814580970   107.92738154   310.32811284
 C      1   2   3     1.563649577111    99.63452645   273.93693603
 O     86   1   2     1.235070848170   115.35182063   218.90448243
 N     86   1   2     1.368100873474   124.90483925    48.49086207
 N     18  16  15     1.481890684227    54.05406108   341.17838281
 C     89  18  16     1.429125606796   122.85041916   207.11768011
 O     90  89  18     1.164688799637   126.32571681   169.39116089
 O     44  41   1     1.410000000000   109.05085788   290.20297255

---------------------------
INTERNAL COORDINATES (A.U.)
---------------------------
 C      0   0   0     0.000000000000     0.00000000     0.00000000
 H      1   0   0     2.077495846272     0.00000000     0.00000000
 C      1   2   0    10.988542171103    88.38739267     0.00000000
 H      3   1   2     2.068538111015    77.41388661    59.49849687
 H      3   1   2     2.090775094702   139.32617833   165.90192280
 C      3   1   2     2.829356128063   115.09290584   311.78867535
 H      6   3   1     2.065341854690   108.37716059   257.87684331
 H      6   3   1     2.074657677120   116.64659610   143.06702356
 C      3   1   2     3.015105274650    42.63245786   213.66500129
 H      9   3   1     2.067674745181   120.27001023    32.03327915
 H      9   3   1     2.084188882322   107.39229088   143.24336503
 C      9   3   1     2.940027635345   117.30231861   258.34498367
 H     12   9   3     2.080072639563   111.46995338   322.73774081
 H     12   9   3     2.066811018695   113.59525429   202.20547555
 C     12   9   3     2.824492680107   108.27529291    91.12722545
 H     15  12   9     2.071557057803   107.35710619   179.13415643
 H     15  12   9     2.063612087339   105.69010359   297.60458256
 C     16  15  12     4.544977963616    86.69714111   252.72177909
 H     18  16  15     2.075776207002    68.91328732   111.65681231
 H     18  16  15     2.077495846272   173.02331182   352.17920095
 H     18  16  15     2.080072639563    78.96338904   231.38488113
 C     10   9   3     6.971219942265   141.38811345   129.99442139
 H     22  10   9     2.067847447185   122.26582861   281.87862086
 H     22  10   9     2.086671844180   142.96208662    70.07123845
 C     22  10   9     2.906494630257    54.79766423    13.17246946
 H     25  22  10     2.082646244671   110.41970793   301.55569317
 H     25  22  10     2.077495846272   115.46467021    67.54052693
 C     25  22  10     3.089745571000   116.66113604   187.66497083
 H     28  25  22     2.086842974031   109.56692929    57.46304921
 H     28  25  22     2.062573530611   113.88578153   302.78607093
 C     28  25  22     2.907354558103   115.64525972   182.13870203
 H     31  28  25     2.070608720253   105.00670816   303.45447491
 H     31  28  25     2.070867400836   109.68426140    53.41721563
 C     31  28  25     2.985827092457   110.08749743   174.03474464
 H     34  31  28     2.084360216029   107.63239982   326.18595483
 H     34  31  28     2.073624652487   109.15848781   200.64766675
 C     22  10   9     4.921602975373    50.89937517   208.08448963
 H     37  22  10     2.076550220902    80.82151008   106.27239182
 H     37  22  10     2.072332647552   116.63748054   357.86252438
 H     37  22  10     2.076808161431   129.22283585   210.57673252
 C      1   2   3     2.825377566058   108.32184391   154.48030857
 H     41   1   2     2.076034243699   112.83383584   181.38061087
 H     41   1   2     2.074571611381   105.27416202   290.49346074
 C     41   1   2     3.031876986172   113.46846003    52.35795223
 H     44  41   1     2.077753669407   104.97422450   174.04609013
 H     44  41   1     2.082989151769   108.94307182    53.70104312
 C     44  41   1     4.695731795165   139.12007160   292.22611956
 H     47  44  41     2.071557057803   139.78507505   331.84448434
 H     47  44  41     2.082903430287    80.16784040   208.92534479
 C     47  44  41     2.989412954949   101.13737918   102.24345789
 H     50  47  44     2.081617184453   112.80816165   222.32845333
 H     50  47  44     2.076550220902   114.29113645   326.35104297
 C     50  47  44     2.954809042766   117.51174863   104.38716292
 H     53  50  47     2.065341854690   102.89593268    60.13846039
 H     53  50  47     2.081788729814    98.98437369   301.78345417
 C     53  50  47     2.799155839180   118.52952977   176.84807963
 H     56  53  50     2.081960261041   114.25905710   315.41524009
 H     56  53  50     2.087014089851   114.85871881    67.94455649
 C     56  53  50     3.035643733113   110.53579430   191.76024266
 H     59  56  53     2.063612087339   116.96357451    57.66704994
 H     59  56  53     2.065082481954   109.38979422   296.72021602
 C     59  56  53     3.113463596350   106.68998052   184.47465647
 H     62  59  56     2.069055957589   116.74489677    59.25564411
 H     62  59  56     2.075432108167   108.83899225   182.32366154
 H     62  59  56     2.063352497164   106.67181533   307.48345569
 C      6   3   1     2.858925192161   113.09742540    19.57001181
 H     66   6   3     2.081874497194   102.94610412   289.77047698
 H     66   6   3     2.066724626193   108.49248474    39.18788470
 C     66   6   3     3.049142070517   121.00955226   165.32407740
 H     69  66   6     2.067502028750   103.80366849    37.48104578
 H     69  66   6     2.073710757528   112.11556331   280.32191587
 C     69  66   6     2.899606026561   112.74431874   151.70356155
 H     72  69  66     2.072591112971   107.44810910   176.67558968
 H     72  69  66     2.078784642181   115.78366030    63.18196892
 H     72  69  66     2.064390662008   115.30947880   283.53511399
 C     34  31  28     2.795645284237   108.39160097    86.35257623
 H     76  34  31     2.075001904380   107.19043558   271.04124879
 H     76  34  31     2.072591112971   116.45352619    35.82088887
 C     76  34  31     2.716214277867   114.08581242   163.55688844
 H     79  76  34     2.056418004362   109.09933955   291.17985029
 H     79  76  34     2.081359839901   115.89561273   173.65333388
 C     79  76  34     3.212645586104   123.16015186    46.40535014
 H     82  79  76     2.074571611381   107.94402307   193.40458098
 H     82  79  76     2.061621060678   110.79282057    66.04483528
 H     82  79  76     2.084017534528   107.92738154   310.32811284
 C      1   2   3     2.954869470162    99.63452645   273.93693603
 O     86   1   2     2.333945659032   115.35182063   218.90448243
 N     86   1   2     2.585335974444   124.90483925    48.49086207
 N     18  16  15     2.800367553599    54.05406108   341.17838281
 C     89  18  16     2.700656007818   122.85041916   207.11768011
 O     90  89  18     2.200942862560   126.32571681   169.39116089
 O     44  41   1     2.664513848829   109.05085788   290.20297255

---------------------
BASIS SET INFORMATION
---------------------
There are 4 groups of distinct atoms

 Group   1 Type C   : 12s6p3d1f contracted to 6s3p3d1f pattern {621111/411/111/1}
 Group   2 Type H   : 5s2p contracted to 3s2p pattern {311/11}
 Group   3 Type O   : 12s7p3d1f contracted to 6s4p3d1f pattern {621111/4111/111/1}
 Group   4 Type N   : 12s6p3d1f contracted to 6s3p3d1f pattern {621111/411/111/1}

Atom   0C    basis set group =>   1
Atom   1H    basis set group =>   2
Atom   2C    basis set group =>   1
Atom   3H    basis set group =>   2
Atom   4H    basis set group =>   2
Atom   5C    basis set group =>   1
Atom   6H    basis set group =>   2
Atom   7H    basis set group =>   2
Atom   8C    basis set group =>   1
Atom   9H    basis set group =>   2
Atom  10H    basis set group =>   2
Atom  11C    basis set group =>   1
Atom  12H    basis set group =>   2
Atom  13H    basis set group =>   2
Atom  14C    basis set group =>   1
Atom  15H    basis set group =>   2
Atom  16H    basis set group =>   2
Atom  17C    basis set group =>   1
Atom  18H    basis set group =>   2
Atom  19H    basis set group =>   2
Atom  20H    basis set group =>   2
Atom  21C    basis set group =>   1
Atom  22H    basis set group =>   2
Atom  23H    basis set group =>   2
Atom  24C    basis set group =>   1
Atom  25H    basis set group =>   2
Atom  26H    basis set group =>   2
Atom  27C    basis set group =>   1
Atom  28H    basis set group =>   2
Atom  29H    basis set group =>   2
Atom  30C    basis set group =>   1
Atom  31H    basis set group =>   2
Atom  32H    basis set group =>   2
Atom  33C    basis set group =>   1
Atom  34H    basis set group =>   2
Atom  35H    basis set group =>   2
Atom  36C    basis set group =>   1
Atom  37H    basis set group =>   2
Atom  38H    basis set group =>   2
Atom  39H    basis set group =>   2
Atom  40C    basis set group =>   1
Atom  41H    basis set group =>   2
Atom  42H    basis set group =>   2
Atom  43C    basis set group =>   1
Atom  44H    basis set group =>   2
Atom  45H    basis set group =>   2
Atom  46C    basis set group =>   1
Atom  47H    basis set group =>   2
Atom  48H    basis set group =>   2
Atom  49C    basis set group =>   1
Atom  50H    basis set group =>   2
Atom  51H    basis set group =>   2
Atom  52C    basis set group =>   1
Atom  53H    basis set group =>   2
Atom  54H    basis set group =>   2
Atom  55C    basis set group =>   1
Atom  56H    basis set group =>   2
Atom  57H    basis set group =>   2
Atom  58C    basis set group =>   1
Atom  59H    basis set group =>   2
Atom  60H    basis set group =>   2
Atom  61C    basis set group =>   1
Atom  62H    basis set group =>   2
Atom  63H    basis set group =>   2
Atom  64H    basis set group =>   2
Atom  65C    basis set group =>   1
Atom  66H    basis set group =>   2
Atom  67H    basis set group =>   2
Atom  68C    basis set group =>   1
Atom  69H    basis set group =>   2
Atom  70H    basis set group =>   2
Atom  71C    basis set group =>   1
Atom  72H    basis set group =>   2
Atom  73H    basis set group =>   2
Atom  74H    basis set group =>   2
Atom  75C    basis set group =>   1
Atom  76H    basis set group =>   2
Atom  77H    basis set group =>   2
Atom  78C    basis set group =>   1
Atom  79H    basis set group =>   2
Atom  80H    basis set group =>   2
Atom  81C    basis set group =>   1
Atom  82H    basis set group =>   2
Atom  83H    basis set group =>   2
Atom  84H    basis set group =>   2
Atom  85C    basis set group =>   1
Atom  86O    basis set group =>   3
Atom  87N    basis set group =>   4
Atom  88N    basis set group =>   4
Atom  89C    basis set group =>   1
Atom  90O    basis set group =>   3
Atom  91O    basis set group =>   3
---------------------------------
AUXILIARY/J BASIS SET INFORMATION
---------------------------------
There are 4 groups of distinct atoms

 Group   1 Type C   : 12s5p4d2f1g contracted to 6s4p3d1f1g pattern {711111/2111/211/2/1}
 Group   2 Type H   : 5s2p1d contracted to 3s1p1d pattern {311/2/1}
 Group   3 Type O   : 12s5p4d2f1g contracted to 6s4p3d1f1g pattern {711111/2111/211/2/1}
 Group   4 Type N   : 12s5p4d2f1g contracted to 6s4p3d1f1g pattern {711111/2111/211/2/1}

Atom   0C    basis set group =>   1
Atom   1H    basis set group =>   2
Atom   2C    basis set group =>   1
Atom   3H    basis set group =>   2
Atom   4H    basis set group =>   2
Atom   5C    basis set group =>   1
Atom   6H    basis set group =>   2
Atom   7H    basis set group =>   2
Atom   8C    basis set group =>   1
Atom   9H    basis set group =>   2
Atom  10H    basis set group =>   2
Atom  11C    basis set group =>   1
Atom  12H    basis set group =>   2
Atom  13H    basis set group =>   2
Atom  14C    basis set group =>   1
Atom  15H    basis set group =>   2
Atom  16H    basis set group =>   2
Atom  17C    basis set group =>   1
Atom  18H    basis set group =>   2
Atom  19H    basis set group =>   2
Atom  20H    basis set group =>   2
Atom  21C    basis set group =>   1
Atom  22H    basis set group =>   2
Atom  23H    basis set group =>   2
Atom  24C    basis set group =>   1
Atom  25H    basis set group =>   2
Atom  26H    basis set group =>   2
Atom  27C    basis set group =>   1
Atom  28H    basis set group =>   2
Atom  29H    basis set group =>   2
Atom  30C    basis set group =>   1
Atom  31H    basis set group =>   2
Atom  32H    basis set group =>   2
Atom  33C    basis set group =>   1
Atom  34H    basis set group =>   2
Atom  35H    basis set group =>   2
Atom  36C    basis set group =>   1
Atom  37H    basis set group =>   2
Atom  38H    basis set group =>   2
Atom  39H    basis set group =>   2
Atom  40C    basis set group =>   1
Atom  41H    basis set group =>   2
Atom  42H    basis set group =>   2
Atom  43C    basis set group =>   1
Atom  44H    basis set group =>   2
Atom  45H    basis set group =>   2
Atom  46C    basis set group =>   1
Atom  47H    basis set group =>   2
Atom  48H    basis set group =>   2
Atom  49C    basis set group =>   1
Atom  50H    basis set group =>   2
Atom  51H    basis set group =>   2
Atom  52C    basis set group =>   1
Atom  53H    basis set group =>   2
Atom  54H    basis set group =>   2
Atom  55C    basis set group =>   1
Atom  56H    basis set group =>   2
Atom  57H    basis set group =>   2
Atom  58C    basis set group =>   1
Atom  59H    basis set group =>   2
Atom  60H    basis set group =>   2
Atom  61C    basis set group =>   1
Atom  62H    basis set group =>   2
Atom  63H    basis set group =>   2
Atom  64H    basis set group =>   2
Atom  65C    basis set group =>   1
Atom  66H    basis set group =>   2
Atom  67H    basis set group =>   2
Atom  68C    basis set group =>   1
Atom  69H    basis set group =>   2
Atom  70H    basis set group =>   2
Atom  71C    basis set group =>   1
Atom  72H    basis set group =>   2
Atom  73H    basis set group =>   2
Atom  74H    basis set group =>   2
Atom  75C    basis set group =>   1
Atom  76H    basis set group =>   2
Atom  77H    basis set group =>   2
Atom  78C    basis set group =>   1
Atom  79H    basis set group =>   2
Atom  80H    basis set group =>   2
Atom  81C    basis set group =>   1
Atom  82H    basis set group =>   2
Atom  83H    basis set group =>   2
Atom  84H    basis set group =>   2
Atom  85C    basis set group =>   1
Atom  86O    basis set group =>   3
Atom  87N    basis set group =>   4
Atom  88N    basis set group =>   4
Atom  89C    basis set group =>   1
Atom  90O    basis set group =>   3
Atom  91O    basis set group =>   3


           ************************************************************
           *        Program running with 64 parallel MPI-processes    *
           *              working on a common directory               *
           ************************************************************
------------------------------------------------------------------------------
                             ORCA STARTUP CALCULATIONS
                           -- RI-GTO INTEGRALS CHOSEN --
------------------------------------------------------------------------------
------------------------------------------------------------------------------
                   ___                                                        
                  /   \      - P O W E R E D   B Y -                         
                 /     \                                                     
                 |  |  |   _    _      __       _____    __    __             
                 |  |  |  | |  | |    /  \     |  _  \  |  |  /  |          
                  \  \/   | |  | |   /    \    | | | |  |  | /  /          
                 / \  \   | |__| |  /  /\  \   | |_| |  |  |/  /          
                |  |  |   |  __  | /  /__\  \  |    /   |      \           
                |  |  |   | |  | | |   __   |  |    \   |  |\   \          
                \     /   | |  | | |  |  |  |  | |\  \  |  | \   \       
                 \___/    |_|  |_| |__|  |__|  |_| \__\ |__|  \__/        
                                                                              
                      - O R C A' S   B I G   F R I E N D -                    
                                      &                                       
                       - I N T E G R A L  F E E D E R -                       
                                                                              
 v1 FN, 2020, v2 2021, v3 2022-2024                                           
------------------------------------------------------------------------------


----------------------
SHARK INTEGRAL PACKAGE
----------------------

Number of atoms                             ...     92
Number of basis functions                   ...   1789
Number of shells                            ...    735
Maximum angular momentum                    ...      3
Integral batch strategy                     ... SHARK/LIBINT Hybrid
RI-J (if used) integral strategy            ... SPLIT-RIJ (Revised 2003 algorithm where possible)
Printlevel                                  ...      1
Contraction scheme used                     ... SEGMENTED contraction
Prescreening option                         ... SCHWARTZ
   Thresh                                   ... 1.000e-10
   Tcut                                     ... 1.000e-11
   Tpresel                                  ... 1.000e-11 
Coulomb Range Separation                    ... NOT USED
Exchange Range Separation                   ... NOT USED
Multipole approximations                    ... NOT USED
Finite Nucleus Model                        ... NOT USED
CABS basis                                  ... NOT available
Auxiliary Coulomb fitting basis             ... AVAILABLE
   # of basis functions in Aux-J            ...   2304
   # of shells in Aux-J                     ...    800
   Maximum angular momentum in Aux-J        ...      4
Auxiliary J/K fitting basis                 ... NOT available
Auxiliary Correlation fitting basis         ... NOT available
Auxiliary 'external' fitting basis          ... NOT available

Checking pre-screening integrals            ... done (  0.0 sec) Dimension = 735
Check shell pair data                       ... done (  0.0 sec)
Shell pair information
Shell pair cut-off parameter TPreSel        ...   1.0e-11
Total number of shell pairs                 ...    270480
Shell pairs after pre-screening             ...    162259
Total number of primitive shell pairs       ...    670825
Primitive shell pairs kept                  ...    273276
          la=0 lb=0:  40452 shell pairs
          la=1 lb=0:  50999 shell pairs
          la=1 lb=1:  16094 shell pairs
          la=2 lb=0:  23967 shell pairs
          la=2 lb=1:  15057 shell pairs
          la=2 lb=2:   3618 shell pairs
          la=3 lb=0:   6024 shell pairs
          la=3 lb=1:   3964 shell pairs
          la=3 lb=2:   1871 shell pairs
          la=3 lb=3:    213 shell pairs

Calculating one electron integrals          ... done (  0.3 sec)
Calculating RI/J V-Matrix + Cholesky decomp.... done (  0.4 sec)
Calculating Nuclear repulsion               ... done (  0.0 sec) ENN=   3815.707653243460 Eh

Diagonalization of the overlap matrix:
Smallest eigenvalue                        ... 3.509e-07
Time for diagonalization                   ...    0.285 sec
Threshold for overlap eigenvalues          ... 1.000e-07
Number of eigenvalues below threshold      ... 0

IMPORTANT:
Smallest eigenvalue of S below the DiffSThresh (1.000e-06) while
Thresh>1e-12 and/or TCut>1e-13! In order to avoid SCF convergence issues,
Thresh will be set to at least 1e-12 and TCut to at least 1e-13.
This can be turned off by adding %SCF DiffSThresh -1 END to the input.

Time for construction of square roots      ...    0.291 sec
Total time needed                          ...    0.615 sec

-------------------
DFT GRID GENERATION
-------------------

General Integration Accuracy     IntAcc      ... 4.388
Radial Grid Type                 RadialGrid  ... OptM3 with GC (2021)
Angular Grid (max. ang.)         AngularGrid ... 4 (Lebedev-302)
Angular grid pruning method      GridPruning ... 4 (adaptive)
Weight generation scheme         WeightScheme... mBecke (2022)
Basis function cutoff            BFCut       ... 1.0000e-10
Integration weight cutoff        WCut        ... 1.0000e-14
Partially contracted basis set               ... off
Rotationally invariant grid construction     ... off
Angular grids for H and He will be reduced by one unit
Diffuse basis detected: some atoms will have their outermost
                        angular grid increased by 1.

Total number of grid points                  ...   401060
Total number of batches                      ...     6324
Average number of points per batch           ...       63
Average number of grid points per atom       ...     4359
Initializing property integral containers    ... done (  0.0 sec)

SHARK setup successfully completed in   8.1 seconds

Maximum memory used throughout the entire STARTUP-calculation: 236.4 MB


           ************************************************************
           *        Program running with 64 parallel MPI-processes    *
           *              working on a common directory               *
           ************************************************************
-------------------------------------------------------------------------------
                                 ORCA GUESS
                   Start orbitals & Density for SCF / CASSCF
-------------------------------------------------------------------------------

------------
SCF SETTINGS
------------
Hamiltonian:
 Density Functional     Method          .... DFT(GTOs)
 Exchange Functional    Exchange        .... B88
   X-Alpha parameter    XAlpha          ....  0.666667
   Becke's b parameter  XBeta           ....  0.004200
 Correlation Functional Correlation     .... P86
 LDA part of GGA corr.  LDAOpt          .... PW91-LDA
 Gradients option       PostSCFGGA      .... off
   NL short-range parameter             ....  4.400000
 RI-approximation to the Coulomb term is turned on
   Number of AuxJ basis functions       .... 2304


General Settings:
 Integral files         IntName         .... single_point_tzvpd
 Hartree-Fock type      HFTyp           .... RHF
 Total Charge           Charge          ....    0
 Multiplicity           Mult            ....    1
 Number of Electrons    NEL             ....  270
 Basis Dimension        Dim             .... 1789
 Nuclear Repulsion      ENuc            ....   3815.7076532435 Eh

Convergence Acceleration:
 AO-DIIS                CNVDIIS         .... on
   Start iteration      DIISMaxIt       ....    12
   Startup error        DIISStart       ....  0.200000
   # of expansion vecs  DIISMaxEq       ....     5
   Bias factor          DIISBfac        ....   1.050
   Max. coefficient     DIISMaxC        ....  10.000
 MO-DIIS                CNVKDIIS        .... off
 Trust-Rad. Augm. Hess. CNVTRAH         .... auto
   Auto Start mean grad. ratio tolernc. ....  1.125000
   Auto Start start iteration           ....    50
   Auto Start num. interpolation iter.  ....    10
   Max. Number of Micro iterations      ....    24
   Max. Number of Macro iterations      .... Maxiter - #DIIS iter
   Number of Davidson start vectors     ....     2
   Converg. threshold    (grad. norm)   ....   5.000e-05
   Grad. Scal. Fac. for Micro threshold ....   0.100
   Minimum threshold for Micro iter.    ....   1.000e-02
   NR start threshold (gradient norm)   ....   1.000e-04
   Initial trust radius                 ....   0.400
   Minimum AH scaling param. (alpha)    ....   1.000
   Maximum AH scaling param. (alpha)    .... 1000.000
   Quad. conv. algorithm                .... NR
   White noise on init. David. guess    .... on
   Maximum white noise                  ....   0.010
   Pseudo random numbers                .... off
   Inactive MOs                         .... canonical
   Orbital update algorithm             .... Taylor
   Preconditioner                       .... Diag
   Full preconditioner red. dimension   ....   250
 SOSCF                  CNVSOSCF        .... on
   Start iteration      SOSCFMaxIt      ....   150
   Startup grad/error   SOSCFStart      ....  0.003300
   Hessian update       SOSCFHessUp     .... L-BFGS
 Level Shifting         CNVShift        .... on
   Level shift para.    LevelShift      ....    0.2500
   Turn off err/grad.   ShiftErr        ....    0.0010
 Zerner damping         CNVZerner       .... off
 Static damping         CNVDamp         .... on
   Fraction old density DampFac         ....    0.7000
   Max. Damping (<1)    DampMax         ....    0.9800
   Min. Damping (>=0)   DampMin         ....    0.0000
   Turn off err/grad.   DampErr         ....    0.1000

SCF Procedure:
 Maximum # iterations   MaxIter         ....   125
 SCF integral mode      SCFMode         .... Direct
   Integral package                     .... SHARK and LIBINT hybrid scheme
 Reset frequency        DirectResetFreq ....    20
 Integral Threshold     Thresh          ....  1.000e-12 Eh
 Primitive CutOff       TCut            ....  1.000e-13 Eh

Convergence Tolerance:
 Convergence Check Mode ConvCheckMode   .... Total+1el-Energy
 Convergence forced     ConvForced      .... 0
 Energy Change          TolE            ....  1.000e-06 Eh
 1-El. energy change                    ....  1.000e-03 Eh
 Orbital Gradient       TolG            ....  5.000e-05
 Orbital Rotation angle TolX            ....  5.000e-05
 DIIS Error             TolErr          ....  1.000e-06

------------------------------
INITIAL GUESS: MODEL POTENTIAL
------------------------------
Loading Hartree-Fock densities                     ... done
Calculating cut-offs                               ... done
Initializing the effective Hamiltonian             ... done
Setting up the integral package (SHARK)            ... done
Starting the Coulomb interaction                   ... done (   0.6 sec)
Making the grid                                    ... done (   2.4 sec)
Mapping shells                                     ... done
Starting the XC term evaluation                    ... done (   0.3 sec)
  promolecular density results
     # of electrons  =    269.959516120
     EX              =   -203.997336143
     EC              =     -9.733039569
     EX+EC           =   -213.730375712
Transforming the Hamiltonian                       ... done (   0.4 sec)
Diagonalizing the Hamiltonian                      ... done (   0.3 sec)
Back transforming the eigenvectors                 ... done (   0.1 sec)
Now organizing SCF variables                       ... done
                      ------------------
                      INITIAL GUESS DONE (   4.6 sec)
                      ------------------
             **** ENERGY FILE WAS UPDATED (single_point_tzvpd.en.tmp) ****
Finished Guess after  11.8 sec
Maximum memory used throughout the entire GUESS-calculation: 244.1 MB


           ************************************************************
           *        Program running with 64 parallel MPI-processes    *
           *              working on a common directory               *
           ************************************************************

-------------------------------------------------------------------------------------------
                                      ORCA LEAN-SCF
                              memory conserving SCF solver
-------------------------------------------------------------------------------------------

--------------------
CPCM SOLVATION MODEL
--------------------
CPCM parameters:
  Epsilon                                         ...     INFINITY
  Refrac                                          ...       1.3300
  Rsolv                                           ...       1.3000
  Surface type                                    ... GAUSSIAN VDW
  Discretization scheme                           ... Constant charge density
    Threshold for H atoms                         ...       5.0000 (charges/Ang^2)
    Threshold for non-H atoms                     ...       5.0000 (charges/Ang^2)
  Epsilon function type                           ...         CPCM
Solvent:                                          ... CONDUCTOR
Radii:
  Scheme                                          ... Element-dependent radii
  Radius for C  used is    3.7795 Bohr (=   2.0000 Ang.)
  Radius for H  used is    2.4566 Bohr (=   1.3000 Ang.)
  Radius for O  used is    3.2503 Bohr (=   1.7200 Ang.)
  Radius for N  used is    3.4582 Bohr (=   1.8300 Ang.)
Calculating surface                               ...        done! (  0.0s)
Cavity surface points                             ...         4764
Cavity Volume                                     ...    4498.4415
Cavity Surface-area                               ...    2356.8670
Calculating surface distance matrix               ...        done! (  0.2s)
Performing Cholesky decomposition & store         ...        done! (  0.5s)
Overall time for CPCM initialization              ...                 0.7s

----------------------------------------D-I-I-S--------------------------------------------
Iteration    Energy (Eh)           Delta-E    RMSDP     MaxDP     DIISErr   Damp  Time(sec)
-------------------------------------------------------------------------------------------
               ***  Starting incremental Fock matrix formation  ***
    1    -1474.5433065776164767     0.00e+00  3.17e-03  5.88e-01  2.82e-01  0.700   8.9
    2    -1475.0497601781694357    -5.06e-01  2.38e-03  6.20e-01  9.13e-02  0.700   9.7
                               ***Turning on AO-DIIS***
    3    -1475.2217443887161608    -1.72e-01  1.47e-03  5.43e-01  2.49e-02  0.700   8.8
    4    -1475.3271013902335653    -1.05e-01  3.03e-03  1.16e+00  1.02e-02  0.000   9.0
    5    -1475.5652463933843137    -2.38e-01  4.80e-04  1.83e-01  1.18e-02  0.000   8.6
    6    -1475.5674250174611188    -2.18e-03  1.60e-04  5.55e-02  3.93e-03  0.000   9.0
                              *** Initializing SOSCF ***
---------------------------------------S-O-S-C-F--------------------------------------
Iteration    Energy (Eh)           Delta-E    RMSDP     MaxDP     MaxGrad    Time(sec)
--------------------------------------------------------------------------------------
    7    -1475.5676854519292647    -2.60e-04  8.26e-05  2.77e-02  1.64e-03     9.6
               *** Restarting incremental Fock matrix formation ***
    8    -1475.5677132047162559    -2.78e-05  1.37e-04  3.19e-02  1.24e-04     8.5
    9    -1475.5677042171614630     8.99e-06  2.60e-05  5.82e-03  4.37e-04     7.7
   10    -1475.5677171377578816    -1.29e-05  4.00e-05  6.59e-03  1.32e-04     7.4
   11    -1475.5677159982910780     1.14e-06  9.25e-06  2.45e-03  2.04e-04     7.5
   12    -1475.5677180869547556    -2.09e-06  2.72e-05  6.15e-03  3.89e-05     7.6
   13    -1475.5677178015644131     2.85e-07  1.21e-05  2.91e-03  5.32e-05     7.7
                 **** Energy Check signals convergence ****

               *****************************************************
               *                     SUCCESS                       *
               *           SCF CONVERGED AFTER  13 CYCLES          *
               *****************************************************

             **** ENERGY FILE WAS UPDATED (single_point_tzvpd.en.tmp) ****

----------------
TOTAL SCF ENERGY
----------------

Total Energy       :      -1475.56771780156441 Eh          -40152.23890 eV

Components:
Nuclear Repulsion  :       3815.70765324345984 Eh          103830.68389 eV
Electronic Energy  :      -5291.24571570682747 Eh         -143982.11583 eV
One Electron Energy:      -9593.30310093337903 Eh         -261047.04875 eV
Two Electron Energy:       4302.05738522655156 Eh          117064.93292 eV
CPCM Dielectric    :         -0.02965533819668 Eh              -0.80696 eV

Virial components:
Potential Energy   :      -2943.38054691421166 Eh          -80093.45655 eV
Kinetic Energy     :       1467.81282911264702 Eh           39941.21765 eV
Virial Ratio       :          2.00528329534605

DFT components:
N(Alpha)           :      134.999852284492 electrons
N(Beta)            :      134.999852284492 electrons
N(Total)           :      269.999704568985 electrons
E(X)               :     -209.128772365815 Eh       
E(C)               :       -9.666294383132 Eh       
E(XC)              :     -218.795066748947 Eh       

CPCM Solvation Model Properties:
Surface-charge          :         -0.06857887150567
Corrected charge        :          0.00000000000000
Outlying charge corr.   :          0.00018893289799 Eh               0.00514 eV
Free-energy (cav+disp)  :  This term is not implemented in the current solvation scheme

---------------
SCF CONVERGENCE
---------------

  Last Energy change         ...   -2.8539e-07  Tolerance :   1.0000e-06
  Last MAX-Density change    ...    2.9107e-03  Tolerance :   1.0000e-05
  Last RMS-Density change    ...    1.2116e-05  Tolerance :   1.0000e-06
  Last DIIS Error            ...    1.6424e-03  Tolerance :   1.0000e-06
  Last Orbital Gradient      ...    5.3206e-05  Tolerance :   5.0000e-05
  Last Orbital Rotation      ...    5.8805e-05  Tolerance :   5.0000e-05


----------------
ORBITAL ENERGIES
----------------

  NO   OCC          E(Eh)            E(eV) 
   0   2.0000     -18.769904      -510.7551 
   1   2.0000     -18.746347      -510.1140 
   2   2.0000     -18.732906      -509.7483 
   3   2.0000     -14.044106      -382.1596 
   4   2.0000     -14.033584      -381.8732 
   5   2.0000      -9.993401      -271.9343 
   6   2.0000      -9.992049      -271.8975 
   7   2.0000      -9.946131      -270.6480 
   8   2.0000      -9.943548      -270.5777 
   9   2.0000      -9.933711      -270.3100 
  10   2.0000      -9.925360      -270.0828 
  11   2.0000      -9.923601      -270.0349 
  12   2.0000      -9.923582      -270.0344 
  13   2.0000      -9.914248      -269.7804 
  14   2.0000      -9.901957      -269.4460 
  15   2.0000      -9.896893      -269.3081 
  16   2.0000      -9.895349      -269.2661 
  17   2.0000      -9.891712      -269.1672 
  18   2.0000      -9.891441      -269.1598 
  19   2.0000      -9.889473      -269.1062 
  20   2.0000      -9.889135      -269.0970 
  21   2.0000      -9.889114      -269.0965 
  22   2.0000      -9.888762      -269.0869 
  23   2.0000      -9.885998      -269.0117 
  24   2.0000      -9.885883      -269.0085 
  25   2.0000      -9.885253      -268.9914 
  26   2.0000      -9.884953      -268.9833 
  27   2.0000      -9.884141      -268.9612 
  28   2.0000      -9.883740      -268.9502 
  29   2.0000      -9.883333      -268.9392 
  30   2.0000      -9.879550      -268.8362 
  31   2.0000      -9.878856      -268.8173 
  32   2.0000      -9.878534      -268.8086 
  33   2.0000      -9.873746      -268.6783 
  34   2.0000      -0.990774       -26.9603 
  35   2.0000      -0.952128       -25.9087 
  36   2.0000      -0.941536       -25.6205 
  37   2.0000      -0.844865       -22.9900 
  38   2.0000      -0.842910       -22.9368 
  39   2.0000      -0.741144       -20.1675 
  40   2.0000      -0.736544       -20.0424 
  41   2.0000      -0.731077       -19.8936 
  42   2.0000      -0.723023       -19.6745 
  43   2.0000      -0.709161       -19.2973 
  44   2.0000      -0.707734       -19.2584 
  45   2.0000      -0.683258       -18.5924 
  46   2.0000      -0.680392       -18.5144 
  47   2.0000      -0.673688       -18.3320 
  48   2.0000      -0.651829       -17.7372 
  49   2.0000      -0.636914       -17.3313 
  50   2.0000      -0.634137       -17.2558 
  51   2.0000      -0.627282       -17.0692 
  52   2.0000      -0.623982       -16.9794 
  53   2.0000      -0.612487       -16.6666 
  54   2.0000      -0.591733       -16.1019 
  55   2.0000      -0.589108       -16.0305 
  56   2.0000      -0.574664       -15.6374 
  57   2.0000      -0.552976       -15.0472 
  58   2.0000      -0.543735       -14.7958 
  59   2.0000      -0.539528       -14.6813 
  60   2.0000      -0.528311       -14.3761 
  61   2.0000      -0.527260       -14.3475 
  62   2.0000      -0.520660       -14.1679 
  63   2.0000      -0.517942       -14.0939 
  64   2.0000      -0.504455       -13.7269 
  65   2.0000      -0.497371       -13.5341 
  66   2.0000      -0.493390       -13.4258 
  67   2.0000      -0.483509       -13.1569 
  68   2.0000      -0.470728       -12.8092 
  69   2.0000      -0.444291       -12.0898 
  70   2.0000      -0.440099       -11.9757 
  71   2.0000      -0.437293       -11.8994 
  72   2.0000      -0.430891       -11.7251 
  73   2.0000      -0.430103       -11.7037 
  74   2.0000      -0.424080       -11.5398 
  75   2.0000      -0.424019       -11.5382 
  76   2.0000      -0.414708       -11.2848 
  77   2.0000      -0.410255       -11.1636 
  78   2.0000      -0.406833       -11.0705 
  79   2.0000      -0.406293       -11.0558 
  80   2.0000      -0.402768       -10.9599 
  81   2.0000      -0.398965       -10.8564 
  82   2.0000      -0.394387       -10.7318 
  83   2.0000      -0.392639       -10.6843 
  84   2.0000      -0.384066       -10.4510 
  85   2.0000      -0.380405       -10.3513 
  86   2.0000      -0.378082       -10.2881 
  87   2.0000      -0.375971       -10.2307 
  88   2.0000      -0.372591       -10.1387 
  89   2.0000      -0.371378       -10.1057 
  90   2.0000      -0.368840       -10.0367 
  91   2.0000      -0.364873        -9.9287 
  92   2.0000      -0.361265        -9.8305 
  93   2.0000      -0.359648        -9.7865 
  94   2.0000      -0.356029        -9.6880 
  95   2.0000      -0.355614        -9.6767 
  96   2.0000      -0.353055        -9.6071 
  97   2.0000      -0.349281        -9.5044 
  98   2.0000      -0.344329        -9.3697 
  99   2.0000      -0.343231        -9.3398 
 100   2.0000      -0.340488        -9.2652 
 101   2.0000      -0.334986        -9.1154 
 102   2.0000      -0.332618        -9.0510 
 103   2.0000      -0.330181        -8.9847 
 104   2.0000      -0.326772        -8.8919 
 105   2.0000      -0.323152        -8.7934 
 106   2.0000      -0.320704        -8.7268 
 107   2.0000      -0.317183        -8.6310 
 108   2.0000      -0.314505        -8.5581 
 109   2.0000      -0.307754        -8.3744 
 110   2.0000      -0.306686        -8.3454 
 111   2.0000      -0.302912        -8.2426 
 112   2.0000      -0.300816        -8.1856 
 113   2.0000      -0.296169        -8.0592 
 114   2.0000      -0.294129        -8.0037 
 115   2.0000      -0.291679        -7.9370 
 116   2.0000      -0.289589        -7.8801 
 117   2.0000      -0.285927        -7.7805 
 118   2.0000      -0.281263        -7.6535 
 119   2.0000      -0.279519        -7.6061 
 120   2.0000      -0.275266        -7.4904 
 121   2.0000      -0.273872        -7.4524 
 122   2.0000      -0.271118        -7.3775 
 123   2.0000      -0.269047        -7.3211 
 124   2.0000      -0.267872        -7.2892 
 125   2.0000      -0.265042        -7.2122 
 126   2.0000      -0.261197        -7.1075 
 127   2.0000      -0.255280        -6.9465 
 128   2.0000      -0.253297        -6.8926 
 129   2.0000      -0.252040        -6.8584 
 130   2.0000      -0.233583        -6.3561 
 131   2.0000      -0.216763        -5.8984 
 132   2.0000      -0.209090        -5.6896 
 133   2.0000      -0.205720        -5.5979 
 134   2.0000      -0.201130        -5.4730 
 135   0.0000      -0.046256        -1.2587 
 136   0.0000      -0.011265        -0.3065 
 137   0.0000      -0.003404        -0.0926 
 138   0.0000       0.001447         0.0394 
 139   0.0000       0.004433         0.1206 
 140   0.0000       0.006415         0.1746 
 141   0.0000       0.010141         0.2760 
 142   0.0000       0.012340         0.3358 
 143   0.0000       0.014626         0.3980 
 144   0.0000       0.015645         0.4257 
 145   0.0000       0.018742         0.5100 
*Only the first 10 virtual orbitals were printed.

                    ********************************
                    * MULLIKEN POPULATION ANALYSIS *
                    ********************************

-----------------------
MULLIKEN ATOMIC CHARGES
-----------------------
   0 C :    1.509648
   1 H :    0.329875
   2 C :   -0.377690
   3 H :    0.206519
   4 H :    0.180046
   5 C :   -0.769086
   6 H :    0.317900
   7 H :    0.250270
   8 C :    0.334273
   9 H :   -0.227556
  10 H :    0.138972
  11 C :   -0.577254
  12 H :    0.391761
  13 H :    0.174321
  14 C :   -1.126454
  15 H :    0.502987
  16 H :    0.349800
  17 C :   -1.248807
  18 H :    0.298386
  19 H :    0.451155
  20 H :    0.413856
  21 C :   -1.110620
  22 H :    0.339042
  23 H :    0.274526
  24 C :    0.872299
  25 H :   -0.085386
  26 H :   -0.012684
  27 C :   -1.459980
  28 H :    0.262298
  29 H :    0.419216
  30 C :   -0.246365
  31 H :    0.302961
  32 H :    0.268074
  33 C :   -0.424278
  34 H :    0.223174
  35 H :    0.260218
  36 C :   -1.309139
  37 H :    0.465233
  38 H :    0.397573
  39 H :    0.326564
  40 C :   -0.785292
  41 H :    0.302285
  42 H :    0.482458
  43 C :   -0.665227
  44 H :    0.329680
  45 H :    0.413386
  46 C :   -0.523987
  47 H :    0.235760
  48 H :    0.346399
  49 C :   -0.774834
  50 H :    0.445022
  51 H :    0.341045
  52 C :   -0.247139
  53 H :    0.122452
  54 H :    0.287885
  55 C :   -0.687950
  56 H :    0.395718
  57 H :    0.260671
  58 C :   -0.444383
  59 H :    0.389793
  60 H :    0.299297
  61 C :   -1.355788
  62 H :    0.378370
  63 H :    0.358413
  64 H :    0.351526
  65 C :    0.008992
  66 H :   -0.138906
  67 H :    0.432735
  68 C :   -0.548513
  69 H :    0.250492
  70 H :    0.301673
  71 C :   -1.366739
  72 H :    0.406710
  73 H :    0.327882
  74 H :    0.389183
  75 C :   -0.123587
  76 H :    0.152132
  77 H :    0.228963
  78 C :   -0.849075
  79 H :    0.341175
  80 H :    0.286618
  81 C :   -1.261387
  82 H :    0.369444
  83 H :    0.369360
  84 H :    0.331923
  85 C :    0.038918
  86 O :   -0.837264
  87 N :    0.495087
  88 N :    0.276947
  89 C :   -0.364383
  90 O :   -0.659949
  91 O :   -0.399643
Sum of atomic charges:    0.0000000

--------------------------------
MULLIKEN REDUCED ORBITAL CHARGES
--------------------------------
  0 C s       :     2.559665  s :     2.559665
      pz      :     0.588459  p :     1.924471
      px      :     0.732286
      py      :     0.603726
      dz2     :    -0.043102  d :    -0.001182
      dxz     :    -0.027360
      dyz     :     0.075367
      dx2y2   :    -0.086221
      dxy     :     0.080135
      f0      :     0.000508  f :     0.007398
      f+1     :     0.001053
      f-1     :     0.000915
      f+2     :     0.001064
      f-2     :     0.001474
      f+3     :     0.001179
      f-3     :     0.001203

  1 H s       :     0.700244  s :     0.700244
      pz      :    -0.030110  p :    -0.030118
      px      :     0.004375
      py      :    -0.004383

  2 C s       :     3.331820  s :     3.331820
      pz      :     1.103721  p :     3.130877
      px      :     1.022942
      py      :     1.004213
      dz2     :     0.022037  d :    -0.090221
      dxz     :     0.034007
      dyz     :     0.005613
      dx2y2   :    -0.038792
      dxy     :    -0.113087
      f0      :     0.001150  f :     0.005214
      f+1     :     0.000715
      f-1     :     0.001205
      f+2     :     0.000507
      f-2     :     0.000363
      f+3     :     0.000497
      f-3     :     0.000776

  3 H s       :     0.769227  s :     0.769227
      pz      :     0.007410  p :     0.024254
      px      :     0.005209
      py      :     0.011636

  4 H s       :     0.779606  s :     0.779606
      pz      :     0.030397  p :     0.040348
      px      :     0.002581
      py      :     0.007371

  5 C s       :     3.458758  s :     3.458758
      pz      :     1.092682  p :     3.252452
      px      :     1.053973
      py      :     1.105797
      dz2     :     0.084641  d :     0.052037
      dxz     :     0.014496
      dyz     :    -0.035821
      dx2y2   :     0.010753
      dxy     :    -0.022032
      f0      :     0.001321  f :     0.005840
      f+1     :     0.001449
      f-1     :     0.000914
      f+2     :     0.000857
      f-2     :     0.000464
      f+3     :     0.000257
      f-3     :     0.000578

  6 H s       :     0.663023  s :     0.663023
      pz      :     0.001058  p :     0.019077
      px      :     0.020873
      py      :    -0.002855

  7 H s       :     0.701469  s :     0.701469
      pz      :     0.014657  p :     0.048261
      px      :     0.010181
      py      :     0.023423

  8 C s       :     2.719258  s :     2.719258
      pz      :     0.836519  p :     2.905085
      px      :     1.130614
      py      :     0.937952
      dz2     :     0.080694  d :     0.036587
      dxz     :    -0.077241
      dyz     :     0.042622
      dx2y2   :    -0.032420
      dxy     :     0.022931
      f0      :     0.001107  f :     0.004796
      f+1     :     0.000872
      f-1     :     0.001305
      f+2     :     0.000242
      f-2     :     0.000206
      f+3     :     0.000483
      f-3     :     0.000582

  9 H s       :     0.687425  s :     0.687425
      pz      :     0.037227  p :     0.540131
      px      :     0.295753
      py      :     0.207151

 10 H s       :     0.881202  s :     0.881202
      pz      :     0.010918  p :    -0.020174
      px      :    -0.029348
      py      :    -0.001744

 11 C s       :     3.133176  s :     3.133176
      pz      :     1.118922  p :     3.411780
      px      :     1.060140
      py      :     1.232717
      dz2     :     0.037855  d :     0.026593
      dxz     :     0.021700
      dyz     :     0.022991
      dx2y2   :    -0.024335
      dxy     :    -0.031617
      f0      :     0.001203  f :     0.005706
      f+1     :     0.001800
      f-1     :     0.000830
      f+2     :     0.000240
      f-2     :     0.000172
      f+3     :     0.000675
      f-3     :     0.000785

 12 H s       :     0.575660  s :     0.575660
      pz      :     0.016646  p :     0.032579
      px      :     0.005673
      py      :     0.010260

 13 H s       :     0.740063  s :     0.740063
      pz      :     0.005366  p :     0.085616
      px      :     0.018806
      py      :     0.061444

 14 C s       :     3.866945  s :     3.866945
      pz      :     1.244320  p :     3.202905
      px      :     0.983012
      py      :     0.975573
      dz2     :     0.007735  d :     0.048836
      dxz     :     0.019569
      dyz     :    -0.009007
      dx2y2   :     0.012104
      dxy     :     0.018436
      f0      :     0.001099  f :     0.007767
      f+1     :     0.000914
      f-1     :     0.000470
      f+2     :     0.000652
      f-2     :     0.000831
      f+3     :     0.001762
      f-3     :     0.002038

 15 H s       :     0.459476  s :     0.459476
      pz      :     0.019319  p :     0.037538
      px      :     0.013474
      py      :     0.004744

 16 H s       :     0.615322  s :     0.615322
      pz      :     0.010983  p :     0.034877
      px      :     0.023060
      py      :     0.000834

 17 C s       :     3.756012  s :     3.756012
      pz      :     1.033897  p :     3.372450
      px      :     1.277197
      py      :     1.061355
      dz2     :     0.012539  d :     0.114699
      dxz     :     0.029884
      dyz     :     0.011192
      dx2y2   :     0.058742
      dxy     :     0.002343
      f0      :     0.000798  f :     0.005648
      f+1     :     0.000140
      f-1     :     0.001339
      f+2     :     0.001347
      f-2     :     0.000933
      f+3     :     0.000835
      f-3     :     0.000256

 18 H s       :     0.654704  s :     0.654704
      pz      :     0.012426  p :     0.046910
      px      :     0.043299
      py      :    -0.008816

 19 H s       :     0.528520  s :     0.528520
      pz      :     0.006588  p :     0.020325
      px      :    -0.014050
      py      :     0.027787

 20 H s       :     0.549026  s :     0.549026
      pz      :     0.019063  p :     0.037117
      px      :     0.000849
      py      :     0.017205

 21 C s       :     3.875281  s :     3.875281
      pz      :     1.116771  p :     3.175814
      px      :     0.899845
      py      :     1.159198
      dz2     :     0.056956  d :     0.051971
      dxz     :    -0.014274
      dyz     :    -0.033705
      dx2y2   :     0.033653
      dxy     :     0.009341
      f0      :     0.000856  f :     0.007553
      f+1     :     0.001171
      f-1     :     0.000444
      f+2     :     0.000393
      f-2     :     0.001214
      f+3     :     0.001828
      f-3     :     0.001647

 22 H s       :     0.609109  s :     0.609109
      pz      :     0.024842  p :     0.051848
      px      :     0.021240
      py      :     0.005766

 23 H s       :     0.677686  s :     0.677686
      pz      :    -0.004479  p :     0.047788
      px      :     0.019080
      py      :     0.033187

 24 C s       :     2.890060  s :     2.890060
      pz      :     0.920040  p :     2.518331
      px      :     0.737189
      py      :     0.861103
      dz2     :    -0.095414  d :    -0.285648
      dxz     :    -0.069476
      dyz     :    -0.088709
      dx2y2   :    -0.090243
      dxy     :     0.058193
      f0      :     0.000806  f :     0.004957
      f+1     :     0.000722
      f-1     :     0.000330
      f+2     :     0.000316
      f-2     :     0.000857
      f+3     :     0.001197
      f-3     :     0.000731

 25 H s       :     0.975392  s :     0.975392
      pz      :     0.019179  p :     0.109994
      px      :     0.032633
      py      :     0.058182

 26 H s       :     0.951531  s :     0.951531
      pz      :    -0.009039  p :     0.061153
      px      :     0.039742
      py      :     0.030450

 27 C s       :     3.732791  s :     3.732791
      pz      :     1.185714  p :     3.643937
      px      :     1.264827
      py      :     1.193396
      dz2     :     0.005082  d :     0.078272
      dxz     :     0.030909
      dyz     :    -0.023153
      dx2y2   :     0.044480
      dxy     :     0.020954
      f0      :     0.000634  f :     0.004981
      f+1     :     0.000855
      f-1     :     0.000270
      f+2     :     0.000384
      f-2     :     0.000786
      f+3     :     0.001123
      f-3     :     0.000930

 28 H s       :     0.690425  s :     0.690425
      pz      :     0.026243  p :     0.047277
      px      :     0.019834
      py      :     0.001201

 29 H s       :     0.570002  s :     0.570002
      pz      :     0.010165  p :     0.010782
      px      :    -0.025127
      py      :     0.025743

 30 C s       :     3.344606  s :     3.344606
      pz      :     1.011783  p :     3.036812
      px      :     1.105916
      py      :     0.919114
      dz2     :    -0.042793  d :    -0.140329
      dxz     :    -0.037010
      dyz     :    -0.055115
      dx2y2   :    -0.009112
      dxy     :     0.003701
      f0      :     0.000615  f :     0.005276
      f+1     :     0.000840
      f-1     :     0.000340
      f+2     :     0.000369
      f-2     :     0.000878
      f+3     :     0.001244
      f-3     :     0.000990

 31 H s       :     0.642213  s :     0.642213
      pz      :    -0.001931  p :     0.054826
      px      :     0.023989
      py      :     0.032768

 32 H s       :     0.665430  s :     0.665430
      pz      :     0.023910  p :     0.066496
      px      :     0.020290
      py      :     0.022296

 33 C s       :     3.342629  s :     3.342629
      pz      :     0.996669  p :     3.019907
      px      :     1.037599
[...]
  BVA  - Mayer's bonded valence
  FA   - Mayer's free valence

  ATOM       NA         ZA         QA         VA         BVA        FA
  0 C      4.4904     6.0000     1.5096     2.0305     2.0305     0.0000
  1 H      0.6701     1.0000     0.3299     0.2790     0.2790    -0.0000
  2 C      6.3777     6.0000    -0.3777     3.4637     3.4637    -0.0000
  3 H      0.7935     1.0000     0.2065     0.7492     0.7492    -0.0000
  4 H      0.8200     1.0000     0.1800     0.8950     0.8950    -0.0000
  5 C      6.7691     6.0000    -0.7691     3.7398     3.7398    -0.0000
  6 H      0.6821     1.0000     0.3179     0.8301     0.8301    -0.0000
  7 H      0.7497     1.0000     0.2503     0.8554     0.8554    -0.0000
  8 C      5.6657     6.0000     0.3343     4.5847     4.5847     0.0000
  9 H      1.2276     1.0000    -0.2276     2.3739     2.3739     0.0000
 10 H      0.8610     1.0000     0.1390     0.8498     0.8498    -0.0000
 11 C      6.5773     6.0000    -0.5773     3.7198     3.7198    -0.0000
 12 H      0.6082     1.0000     0.3918     0.7705     0.7705    -0.0000
 13 H      0.8257     1.0000     0.1743     1.0599     1.0599    -0.0000
 14 C      7.1265     6.0000    -1.1265     3.6680     3.6680     0.0000
 15 H      0.4970     1.0000     0.5030     0.5375     0.5375    -0.0000
 16 H      0.6502     1.0000     0.3498     0.7801     0.7801    -0.0000
 17 C      7.2488     6.0000    -1.2488     3.5343     3.5343    -0.0000
 18 H      0.7016     1.0000     0.2984     0.9864     0.9864     0.0000
 19 H      0.5488     1.0000     0.4512     0.7767     0.7767    -0.0000
 20 H      0.5861     1.0000     0.4139     0.7947     0.7947    -0.0000
 21 C      7.1106     6.0000    -1.1106     2.9258     2.9258     0.0000
 22 H      0.6610     1.0000     0.3390     0.9052     0.9052     0.0000
 23 H      0.7255     1.0000     0.2745     0.9808     0.9808    -0.0000
 24 C      5.1277     6.0000     0.8723     2.3943     2.3943    -0.0000
 25 H      1.0854     1.0000    -0.0854     1.1345     1.1345    -0.0000
 26 H      1.0127     1.0000    -0.0127     1.0189     1.0189    -0.0000
 27 C      7.4600     6.0000    -1.4600     3.5731     3.5731     0.0000
 28 H      0.7377     1.0000     0.2623     0.9167     0.9167     0.0000
 29 H      0.5808     1.0000     0.4192     0.7182     0.7182     0.0000
 30 C      6.2464     6.0000    -0.2464     2.7397     2.7397     0.0000
 31 H      0.6970     1.0000     0.3030     0.9158     0.9158     0.0000
 32 H      0.7319     1.0000     0.2681     0.8456     0.8456    -0.0000
 33 C      6.4243     6.0000    -0.4243     3.6610     3.6610     0.0000
 34 H      0.7768     1.0000     0.2232     1.0304     1.0304     0.0000
 35 H      0.7398     1.0000     0.2602     0.8081     0.8081    -0.0000
 36 C      7.3091     6.0000    -1.3091     3.5654     3.5654     0.0000
 37 H      0.5348     1.0000     0.4652     0.7497     0.7497    -0.0000
 38 H      0.6024     1.0000     0.3976     1.0389     1.0389    -0.0000
 39 H      0.6734     1.0000     0.3266     1.0053     1.0053    -0.0000
 40 C      6.7853     6.0000    -0.7853     3.0253     3.0253    -0.0000
 41 H      0.6977     1.0000     0.3023     1.0427     1.0427    -0.0000
 42 H      0.5175     1.0000     0.4825     0.6562     0.6562    -0.0000
 43 C      6.6652     6.0000    -0.6652     3.5811     3.5811    -0.0000
 44 H      0.6703     1.0000     0.3297     0.7113     0.7113     0.0000
 45 H      0.5866     1.0000     0.4134     0.8062     0.8062    -0.0000
 46 C      6.5240     6.0000    -0.5240     3.8660     3.8660     0.0000
 47 H      0.7642     1.0000     0.2358     0.9408     0.9408     0.0000
 48 H      0.6536     1.0000     0.3464     0.8164     0.8164    -0.0000
 49 C      6.7748     6.0000    -0.7748     3.4086     3.4086    -0.0000
 50 H      0.5550     1.0000     0.4450     0.7000     0.7000    -0.0000
 51 H      0.6590     1.0000     0.3410     1.1641     1.1641    -0.0000
 52 C      6.2471     6.0000    -0.2471     3.2040     3.2040     0.0000
 53 H      0.8775     1.0000     0.1225     0.9819     0.9819     0.0000
 54 H      0.7121     1.0000     0.2879     0.8087     0.8087     0.0000
 55 C      6.6880     6.0000    -0.6880     3.4092     3.4092     0.0000
 56 H      0.6043     1.0000     0.3957     0.8177     0.8177     0.0000
 57 H      0.7393     1.0000     0.2607     0.9885     0.9885     0.0000
 58 C      6.4444     6.0000    -0.4444     3.2123     3.2123     0.0000
 59 H      0.6102     1.0000     0.3898     0.8128     0.8128     0.0000
 60 H      0.7007     1.0000     0.2993     0.9725     0.9725     0.0000
 61 C      7.3558     6.0000    -1.3558     3.6053     3.6053     0.0000
 62 H      0.6216     1.0000     0.3784     0.9689     0.9689     0.0000
 63 H      0.6416     1.0000     0.3584     0.9677     0.9677    -0.0000
 64 H      0.6485     1.0000     0.3515     0.9901     0.9901     0.0000
 65 C      5.9910     6.0000     0.0090     3.5541     3.5541    -0.0000
 66 H      1.1389     1.0000    -0.1389     1.4442     1.4442    -0.0000
 67 H      0.5673     1.0000     0.4327     0.5982     0.5982    -0.0000
 68 C      6.5485     6.0000    -0.5485     3.3014     3.3014     0.0000
 69 H      0.7495     1.0000     0.2505     0.9968     0.9968     0.0000
 70 H      0.6983     1.0000     0.3017     0.9203     0.9203     0.0000
 71 C      7.3667     6.0000    -1.3667     3.6395     3.6395     0.0000
 72 H      0.5933     1.0000     0.4067     0.9341     0.9341    -0.0000
 73 H      0.6721     1.0000     0.3279     1.0047     1.0047     0.0000
 74 H      0.6108     1.0000     0.3892     0.9166     0.9166     0.0000
 75 C      6.1236     6.0000    -0.1236     3.6151     3.6151     0.0000
 76 H      0.8479     1.0000     0.1521     0.9374     0.9374     0.0000
 77 H      0.7710     1.0000     0.2290     0.7969     0.7969     0.0000
 78 C      6.8491     6.0000    -0.8491     3.4179     3.4179     0.0000
 79 H      0.6588     1.0000     0.3412     0.9351     0.9351     0.0000
 80 H      0.7134     1.0000     0.2866     0.9858     0.9858     0.0000
 81 C      7.2614     6.0000    -1.2614     3.6691     3.6691     0.0000
 82 H      0.6306     1.0000     0.3694     0.9579     0.9579     0.0000
 83 H      0.6306     1.0000     0.3694     0.9807     0.9807    -0.0000
 84 H      0.6681     1.0000     0.3319     0.9845     0.9845     0.0000
 85 C      5.9611     6.0000     0.0389     3.1345     3.1345     0.0000
 86 O      8.8373     8.0000    -0.8373     1.3961     1.3961    -0.0000
 87 N      6.5049     7.0000     0.4951     3.1751     3.1751     0.0000
 88 N      6.7231     7.0000     0.2769     3.3617     3.3617     0.0000
 89 C      6.3644     6.0000    -0.3644     2.9707     2.9707     0.0000
 90 O      8.6599     8.0000    -0.6599     1.5150     1.5150     0.0000
 91 O      8.3996     8.0000    -0.3996     1.6691     1.6691     0.0000

  Mayer bond orders larger than 0.100000
B(  0-C ,  1-H ) :   0.8868 B(  0-C , 17-C ) :   0.1017 B(  0-C , 36-C ) :   0.2156 
B(  0-C , 40-C ) :   0.3251 B(  0-C , 43-C ) :   0.3976 B(  0-C , 85-C ) :   0.5672 
B(  0-C , 86-O ) :  -0.2353 B(  0-C , 88-N ) :   0.2889 B(  0-C , 90-O ) :  -0.3370 
B(  1-H , 40-C ) :  -0.1114 B(  1-H , 85-C ) :  -0.2094 B(  1-H , 89-C ) :  -0.1927 
B(  1-H , 90-O ) :   0.1109 B(  2-C ,  3-H ) :   0.8881 B(  2-C ,  4-H ) :   0.9475 
B(  2-C ,  5-C ) :   0.9364 B(  2-C ,  8-C ) :   0.2638 B(  2-C ,  9-H ) :   0.1526 
B(  2-C , 10-H ) :  -0.1325 B(  2-C , 11-C ) :   0.1237 B(  2-C , 14-C ) :   0.1174 
B(  5-C ,  6-H ) :   0.8634 B(  5-C ,  7-H ) :   0.9825 B(  5-C ,  8-C ) :   0.1249 
B(  5-C , 10-H ) :   0.1091 B(  5-C , 65-C ) :   0.4839 B(  5-C , 68-C ) :   0.2619 
B(  8-C ,  9-H ) :   2.1046 B(  8-C , 10-H ) :   0.7043 B(  8-C , 11-C ) :   0.9745 
B(  8-C , 13-H ) :   0.1038 B(  8-C , 36-C ) :   0.1017 B(  8-C , 65-C ) :   0.2023 
B(  9-H , 10-H ) :   0.1829 B(  9-H , 65-C ) :   0.1053 B(  9-H , 66-H ) :  -0.1343 
B( 11-C , 12-H ) :   0.8120 B( 11-C , 13-H ) :   0.8807 B( 11-C , 14-C ) :   0.9245 
B( 14-C , 15-H ) :   0.6493 B( 14-C , 16-H ) :   0.7607 B( 14-C , 88-N ) :   0.8924 
B( 14-C , 90-O ) :   0.1094 B( 17-C , 18-H ) :   0.9938 B( 17-C , 19-H ) :   0.7827 
B( 17-C , 20-H ) :   0.7775 B( 17-C , 88-N ) :   0.9324 B( 17-C , 89-C ) :  -0.1631 
B( 21-C , 22-H ) :   0.9414 B( 21-C , 23-H ) :   1.0453 B( 21-C , 24-C ) :  -0.1422 
B( 21-C , 25-H ) :  -0.1005 B( 21-C , 26-H ) :  -0.2232 B( 21-C , 27-C ) :   0.5089 
B( 21-C , 36-C ) :  -0.1230 B( 21-C , 85-C ) :  -0.1587 B( 21-C , 87-N ) :   0.9193 
B( 22-H , 24-C ) :  -0.1110 B( 24-C , 25-H ) :   1.0746 B( 24-C , 26-H ) :   1.1541 
B( 24-C , 27-C ) :   0.2610 B( 25-H , 30-C ) :   0.1633 B( 26-H , 30-C ) :   0.1144 
B( 27-C , 28-H ) :   1.0233 B( 27-C , 29-H ) :   0.8102 B( 27-C , 30-C ) :   0.3755 
B( 27-C , 32-H ) :  -0.1138 B( 27-C , 33-C ) :   0.3263 B( 27-C , 75-C ) :   0.2350 
B( 30-C , 31-H ) :   0.8867 B( 30-C , 32-H ) :   0.9844 B( 30-C , 33-C ) :   0.4219 
B( 33-C , 34-H ) :   0.9164 B( 33-C , 35-H ) :   0.9533 B( 33-C , 75-C ) :   0.8071 
B( 33-C , 78-C ) :   0.1505 B( 36-C , 37-H ) :   0.6061 B( 36-C , 38-H ) :   0.9073 
B( 36-C , 39-H ) :   0.8994 B( 36-C , 87-N ) :   0.8155 B( 37-H , 38-H ) :   0.1079 
B( 38-H , 39-H ) :   0.1255 B( 38-H , 65-C ) :   0.1072 B( 38-H , 85-C ) :  -0.1017 
B( 40-C , 41-H ) :   0.8738 B( 40-C , 42-H ) :   0.7768 B( 40-C , 43-C ) :   0.7660 
B( 40-C , 91-O ) :   0.1672 B( 41-H , 89-C ) :   0.1575 B( 43-C , 44-H ) :   0.7589 
B( 43-C , 45-H ) :   0.7652 B( 43-C , 49-C ) :   0.1076 B( 43-C , 91-O ) :   0.6016 
B( 46-C , 47-H ) :   0.8979 B( 46-C , 48-H ) :   0.8438 B( 46-C , 49-C ) :   0.7399 
B( 46-C , 52-C ) :   0.4118 B( 46-C , 91-O ) :   0.7627 B( 49-C , 50-H ) :   0.7756 
B( 49-C , 51-H ) :   1.1047 B( 49-C , 52-C ) :   0.3329 B( 49-C , 55-C ) :   0.2878 
B( 49-C , 91-O ) :   0.1540 B( 50-H , 52-C ) :  -0.1353 B( 51-H , 52-C ) :  -0.1001 
B( 52-C , 53-H ) :   1.0832 B( 52-C , 54-H ) :   0.8905 B( 52-C , 55-C ) :   0.4610 
B( 52-C , 58-C ) :   0.2922 B( 55-C , 56-H ) :   0.8516 B( 55-C , 57-H ) :   1.0419 
B( 55-C , 58-C ) :   0.5805 B( 55-C , 61-C ) :   0.2158 B( 58-C , 59-H ) :   0.8570 
B( 58-C , 60-H ) :   0.9602 B( 58-C , 61-C ) :   0.6226 B( 61-C , 62-H ) :   0.9060 
B( 61-C , 63-H ) :   0.9091 B( 61-C , 64-H ) :   0.9370 B( 65-C , 66-H ) :   1.4493 
B( 65-C , 67-H ) :   0.8092 B( 65-C , 68-C ) :   0.5852 B( 66-H , 71-C ) :   0.1409 
B( 68-C , 69-H ) :   0.9066 B( 68-C , 70-H ) :   0.8895 B( 68-C , 71-C ) :   0.7761 
B( 71-C , 72-H ) :   0.9523 B( 71-C , 73-H ) :   0.9278 B( 71-C , 74-H ) :   0.8571 
B( 75-C , 76-H ) :   0.8925 B( 75-C , 77-H ) :   0.8850 B( 75-C , 78-C ) :   0.7666 
B( 78-C , 79-H ) :   0.9026 B( 78-C , 80-H ) :   0.9513 B( 78-C , 81-C ) :   0.7198 
B( 81-C , 82-H ) :   0.8901 B( 81-C , 83-H ) :   0.9051 B( 81-C , 84-H ) :   0.9518 
B( 85-C , 86-O ) :   1.0824 B( 85-C , 87-N ) :   1.2354 B( 85-C , 89-C ) :   0.8281 
B( 88-N , 89-C ) :   0.9852 B( 89-C , 90-O ) :   1.4195 

-------
TIMINGS
-------

Total SCF time: 0 days 0 hours 2 min 2 sec 

Total time                  ....     122.677 sec
Sum of individual times     ....     122.227 sec  ( 99.6%)

SCF preparation             ....      10.036 sec  (  8.2%)
Fock matrix formation       ....      88.911 sec  ( 72.5%)
  Startup                   ....       1.370 sec  (  1.5% of F)
  Split-RI-J                ....      19.134 sec  ( 21.5% of F)
  XC integration            ....      52.480 sec  ( 59.0% of F)
    Basis function eval.    ....       1.279 sec  (  2.4% of XC)
    Density eval.           ....       4.901 sec  (  9.3% of XC)
    XC-Functional eval.     ....       0.075 sec  (  0.1% of XC)
    XC-Potential eval.      ....       5.564 sec  ( 10.6% of XC)
  CPCM terms                ....      12.645 sec  ( 14.2% of F)
Diagonalization             ....       0.000 sec  (  0.0%)
Density matrix formation    ....       3.760 sec  (  3.1%)
Total Energy calculation    ....       1.944 sec  (  1.6%)
Population analysis         ....       0.943 sec  (  0.8%)
Orbital Transformation      ....       1.993 sec  (  1.6%)
Orbital Orthonormalization  ....       0.000 sec  (  0.0%)
DIIS solution               ....       9.947 sec  (  8.1%)
SOSCF solution              ....       4.694 sec  (  3.8%)
Finished LeanSCF after 123.5 sec

Maximum memory used throughout the entire LEANSCF-calculation: 310.2 MB

-------------------------   --------------------
FINAL SINGLE POINT ENERGY     -1475.567717801564
-------------------------   --------------------



           ************************************************************
           *        Program running with 64 parallel MPI-processes    *
           *              working on a common directory               *
           ************************************************************

------------------------------------------------------------------------------
                              ORCA PROPERTY CALCULATIONS
------------------------------------------------------------------------------

GBWName                                 ... single_point_tzvpd.gbw
Number of atoms                         ...     92
Number of basis functions               ...   1789
Max core memory                         ...   2000 MB

Electric properties:
Dipole moment                           ... YES
Quadrupole moment                       ...  NO
Static polarizability (Dipole/Dipole)   ...  NO
Static polarizability (Dipole/Quad.)    ...  NO
Static polarizability (Quad./Quad.)     ...  NO
Static polarizability (Velocity)        ...  NO

Atomic electric properties:
Dipole moment                           ...  NO
Quadrupole moment                       ...  NO
Static polarizability                   ...  NO

Choice of electric origin               ... Center of mass
Position of electric origin             ...   101.479318    92.947225    90.163675

General magnetic properties:
Magnetizability                         ...  NO

EPR properties:
g-Tensor (aka g-matrix)                 ...  NO
Zero-Field splitting spin-orbit         ...  NO
Zero-field splitting spin-spin          ...  NO
Hyperfine couplings                     ...  NO (   0 nuclei)
Quadrupole couplings                    ...  NO (   0 nuclei)
Contact density                         ...  NO (   0 nuclei)

NMR properties:
Chemical shifts                         ...  NO (   0 nuclei)
Spin-rotation constants                 ...  NO (   0 nuclei)
Spin-spin couplings                     ...  NO (   0 nuclei,    0 pairs)

Choice of magnetic origin               ... GIAO
Position of magnetic origin             ...     0.000000     0.000000     0.000000

Properties with geometric perturbations:
SCF Hessian                             ...  NO
IR spectrum                             ...  NO
VCD spectrum                            ...  NO
X-ray spectroscopy properties:
SCF XES/XAS/RIXS spectra                ...  NO


-------------
DIPOLE MOMENT
-------------

Method             : SCF
Type of density    : Electron Density
Multiplicity       :   1
Irrep              :   0
Energy             : -1475.5677178015644131 Eh
Relativity type    : 
Basis              : AO
                                X                 Y                 Z
Electronic contribution:     28.070488943      11.407485025     -21.907051696
Nuclear contribution   :    -29.416178322     -11.393739306      22.125487578
                        -----------------------------------------
Total Dipole Moment    :     -1.345689379       0.013745719       0.218435881
                        -----------------------------------------
Magnitude (a.u.)       :      1.363371953
Magnitude (Debye)      :      3.465416104



--------------------
Rotational spectrum 
--------------------
 
Rotational constants in cm-1:             0.003033             0.001861             0.001548 
Rotational constants in MHz :            90.926984            55.800182            46.419508 

Dipole components along the rotational axes: 
x,y,z [a.u.] :    -1.222759    -0.555368    -0.234966 
x,y,z [Debye]:    -3.108007    -1.411634    -0.597235 

 

Dipole moment calculation done in   0.4 sec 

Maximum memory used throughout the entire PROP-calculation: 263.3 MB

--------------------------------
SUGGESTED CITATIONS FOR THIS RUN
--------------------------------

Below you find a list of papers that are relevant to this ORCA run
We neither can nor want to force you to cite these papers, but we appreciate if you do
You receive ORCA, which is the product of decades of hard work by many enthusiastic individuals, for free
The only thing we kindly ask in return is that you cite our papers,
We deeply appreciate it, if you show your appreciation for ORCA by not just citing the generic ORCA reference.

Please note that relegating all ORCA citations to the supporting information does *not* help us.
SI sections are not indexed - citations you put there will not count into any citation statistics
But we need these citations in order to attract the funding resources that allow us to do what we are doing

Therefore, if you are a happy ORCA user, please consider citing a few of the papers listed below in the main body of your paper

In addition to the list printed below, the program has created the file single_point_tzvpd.bibtex that contains the list in bibtex format
You can import this file easily into all common literature databanks and citation aid programs


List of essential papers. We consider these as the minimum necessary citations

  1. Neese,F.
     Software update: the ORCA program system, version 5.0
     WIRES Comput. Molec. Sci., 2022 12(1)e1606
     doi.org/10.1002/wcms.1606

List of papers to cite with high priority. The work reported in these papers was absolutely
necessary for this run to complete.
Our perspective: the developers of density functionals and basis sets usually get cited in chemistry papers
Good! But without the algorithms to do something with them, the functionals or basis sets would not do anything.
Hence, in our opinion, the algorithm design and method developments papers are equally worthy of getting cited

  1. Neese,F.
     An improvement of the resolution of the identity approximation for the formation of the Coulomb matrix
     J. Comp. Chem., 2003 24(14)1740-1747
     doi.org/10.1002/jcc.10318
  2. Garcia-Rates,M.; Neese,F.
     Effect of the Solute Cavity on the Solvation Energy and its Derivatives within the Framework of the Gaussian Charge Scheme
     J. Comput. Chem., 2020 41 922-939
     doi.org/10.1002/jcc.26139
  3. Neese,F.
     The SHARK Integral Generation and Digestion System
     J. Comp. Chem., 2022  1-16
     doi.org/10.1002/jcc.26942

List of suggested additional citations. These are papers that are important in the 'surrounding' of 
of this run, or papers that preceded the highly important papers. If you like your results we are grateful for a citation.

  1. Neese,F.
     The ORCA program system
     WIRES Comput. Molec. Sci., 2012 2(1)73-78
     doi.org/10.1002/wcms.81
  2. Neese,F.
     Software update: the ORCA program system, version 4.0
     WIRES Comput. Molec. Sci., 2018 8(1)1-6
     doi.org/10.1002/wcms.1327
  3. Neese,F.; Wennmohs,F.; Becker,U.; Riplinger,C.
     The ORCA quantum chemistry program package
     J. Chem. Phys., 2020 152 Art. No. L224108
     doi.org/10.1063/5.0004608

List of optional additional citations

  1. Neese,F.
     Approximate second-order SCF convergence for spin unrestricted wavefunctions
     Chem. Phys. Lett., 2000 325(1-3)93-98
     doi.org/10.1016/s0009-2614(00)00662-x

Timings for individual modules:

Sum of individual times          ...      158.219 sec (=   2.637 min)
Startup calculation              ...       12.020 sec (=   0.200 min)   7.6 %
SCF iterations                   ...      137.784 sec (=   2.296 min)  87.1 %
Property calculations            ...        8.415 sec (=   0.140 min)   5.3 %
                             ****ORCA TERMINATED NORMALLY****
TOTAL RUN TIME: 0 days 0 hours 2 minutes 41 seconds 766 msec
