
                                 *****************
                                 * O   R   C   A *
                                 *****************

                                            #,                                       
                                            ###                                      
                                            ####                                     
                                            #####                                    
                                            ######                                   
                                           ########,                                 
                                     ,,################,,,,,                         
                               ,,#################################,,                 
                          ,,##########################################,,             
                       ,#########################################, ''#####,          
                    ,#############################################,,   '####,        
                  ,##################################################,,,,####,       
                ,###########''''           ''''###############################       
              ,#####''   ,,,,##########,,,,          '''####'''          '####       
            ,##' ,,,,###########################,,,                        '##       
           ' ,,###''''                  '''############,,,                           
         ,,##''                                '''############,,,,        ,,,,,,###''
      ,#''                                            '''#######################'''  
     '                                                          ''''####''''         
             ,#######,   #######,   ,#######,      ##                                
            ,#'     '#,  ##    ##  ,#'     '#,    #''#        ,####,   ,####,        
            ##       ##  ##   ,#'  ##            #'  '#       #'       #'  '#        
            ##       ##  #######   ##           ,######,      #####,   #    #        
            '#,     ,#'  ##    ##  '#,     ,#' ,#      #,     #,   #   #,  ,#        
             '#######'   ##     ##  '#######'  #'      '#     '####' # '####'        



                #########################################################
                #                        -***-                          #
                #          Department of theory and spectroscopy        #
                #                                                       #
                #                      Frank Neese                      #
                #                                                       #
                #     Directorship, Architecture, Infrastructure        #
                #                    SHARK, DRIVERS                     #
                #        Core code/Algorithms in most modules           #
                #                                                       #
                #        Max Planck Institute fuer Kohlenforschung      #
                #                Kaiser Wilhelm Platz 1                 #
                #                 D-45470 Muelheim/Ruhr                 #
                #                      Germany                          #
                #                                                       #
                #                  All rights reserved                  #
                #                        -***-                          #
                #########################################################


                         Program Version 6.0.0  -   RELEASE  -


 With contributions from (in alphabetic order):
   Daniel Aravena         : Magnetic Suceptibility
   Michael Atanasov       : Ab Initio Ligand Field Theory (pilot matlab implementation)
   Alexander A. Auer      : GIAO ZORA, VPT2 properties, NMR spectrum
   Ute Becker             : All parallelization in ORCA, NUMFREQ, NUMCALC
   Giovanni Bistoni       : ED, misc. LED, open-shell LED, HFLD
   Martin Brehm           : Molecular dynamics
   Dmytro Bykov           : pre 5.0 version of the SCF Hessian
   Marcos Casanova-Páez   : Triplet and SCS-CIS(D). UHF-(DLPNO)-IP/EA/STEOM-CCSD. UHF-CVS-IP/STEOM-CCSD
   Vijay G. Chilkuri      : MRCI spin determinant printing, contributions to CSF-ICE
   Pauline Colinet        : FMM embedding
   Dipayan Datta          : RHF DLPNO-CCSD density
   Achintya Kumar Dutta   : EOM-CC, STEOM-CC
   Nicolas Foglia         : Exact transition moments, OPA infrastructure, MCD improvements
   Dmitry Ganyushin       : Spin-Orbit,Spin-Spin,Magnetic field MRCI
   Miquel Garcia          : C-PCM and meta-GGA Hessian, CCSD/C-PCM, Gaussian charge scheme
   Tiago L. C. Gouveia    : GS-ROHF, GS-ROCIS
   Yang Guo               : DLPNO-NEVPT2, F12-NEVPT2, CIM, IAO-localization
   Andreas Hansen         : Spin unrestricted coupled pair/coupled cluster methods
   Ingolf Harden          : AUTO-CI MPn and infrastructure 
   Benjamin Helmich-Paris : MC-RPA, TRAH-(SCF,CASSCF), AVAS, COSX integrals, SCF dyn. polar.
   Lee Huntington         : MR-EOM, pCC
   Robert Izsak           : Overlap fitted RIJCOSX, COSX-SCS-MP3, EOM
   Riya Kayal             : Wick's Theorem for AUTO-CI, AUTO-CI UHF-CCSDT
   Emily Kempfer          : AUTO-CI, RHF CISDT and CCSDT
   Christian Kollmar      : KDIIS, OOCD, Brueckner-CCSD(T), CCSD density, CASPT2, CASPT2-K, improved NEVPT2
   Axel Koslowski         : Symmetry handling
   Simone Kossmann        : Meta GGA functionals, TD-DFT gradient, OOMP2, (MP2 Hessian; deprecated post 5.0)
   Lucas Lang             : DCDCAS
   Marvin Lechner         : AUTO-CI (C++ implementation), FIC-MRCC
   Spencer Leger          : CASSCF response
   Dagmar Lenk            : GEPOL surface, SMD, ORCA-2-JSON
   Dimitrios Liakos       : Extrapolation schemes; Compound Job, initial MDCI parallelization
   Dimitrios Manganas     : Further ROCIS development; embedding schemes. LFT, Crystal Embedding
   Dimitrios Pantazis     : SARC Basis sets
   Anastasios Papadopoulos: AUTO-CI, single reference methods and gradients
   Taras Petrenko         : pre 6.0 DFT Hessian and TD-DFT gradient, (ASA, deprecated), ECA, 1-Electron XAS/XES, NRVS
   Peter Pinski           : DLPNO-MP2, DLPNO-MP2 Gradient
   Christoph Reimann      : Effective Core Potentials
   Marius Retegan         : Local ZFS, SOC
   Christoph Riplinger    : Optimizer, TS searches, QM/MM, DLPNO-CCSD(T), (RO)-DLPNO pert. Triples
   Michael Roemelt        : Original ROCIS implementation
   Masaaki Saitow         : Open-shell DLPNO-CCSD energy and density
   Barbara Sandhoefer     : DKH picture change effects
   Kantharuban Sivalingam : CASSCF convergence/infrastructure, NEVPT2 and variants, FIC-MRCI
   Bernardo de Souza      : ESD, SOC TD-DFT
   Georgi Stoychev        : AutoAux, RI-MP2 NMR, DLPNO-MP2 response, X2C
   Van Anh Tran           : RI-MP2 g-tensors
   Willem Van den Heuvel  : Paramagnetic NMR
   Zikuan Wang            : NOTCH, Electric field optimization 
   Frank Wennmohs         : Technical directorship and infrastructure
   Hang Xu                : AUTO-CI-Response properties 


 We gratefully acknowledge several colleagues who have allowed us to
 interface, adapt or use parts of their codes:
   Stefan Grimme, W. Hujo, H. Kruse, P. Pracht,  : VdW corrections, initial TS optimization,
                  C. Bannwarth, S. Ehlert,         DFT functionals, gCP, sTDA/sTD-DF
                  L. Wittmann, M. Mueller
   Ed Valeev, F. Pavosevic, A. Kumar             : LibInt (2-el integral package), F12 methods
   Garnet Chan, S. Sharma, J. Yang, R. Olivares  : DMRG
   Ulf Ekstrom                                   : XCFun DFT Library
   Mihaly Kallay                                 : mrcc  (arbitrary order and MRCC methods)
   Frank Weinhold                                : gennbo (NPA and NBO analysis)
   Simon Mueller                                 : openCOSMO-RS
   Christopher J. Cramer and Donald G. Truhlar   : smd solvation model
   Lars Goerigk                                  : TD-DFT with DH, B97 family of functionals
   V. Asgeirsson, H. Jonsson                     : NEB implementation
   FAccTs GmbH                                   : IRC, NEB, NEB-TS, DLPNO-Multilevel, CI-OPT
                                                   MM, QMMM, 2- and 3-layer-ONIOM, Crystal-QMMM,
                                                   LR-CPCM, SF, NACMEs, symmetry and pop. for TD-DFT,
                                                   nearIR, NL-DFT gradient (VV10), updates on ESD,
                                                   ML-optimized integration grids, MBIS, APM,
                                                   GOAT, DOCKER, SOLVATOR, interface openCOSMO-RS
   S Lehtola, MJT Oliveira, MAL Marques          : LibXC Library
   Liviu Ungur et al                             : ANISO software


 Your calculation uses the libint2 library for the computation of 2-el integrals
 For citations please refer to: http://libint.valeyev.net

 Your ORCA version has been built with support for libXC version: 6.2.2
 For citations please refer to: https://libxc.gitlab.io

 This ORCA versions uses:
   CBLAS   interface :  Fast vector & matrix operations
   LAPACKE interface :  Fast linear algebra routines
   SCALAPACK package :  Parallel linear algebra routines
   Shared memory     :  Shared parallel matrices


NOTE: MaxCore=2000 MB was set to SCF,MP2,MDCI,CIPSI,MRCI and CIS
      => If you want to overwrite this, your respective input block should be placed after the MaxCore statement


***************************************
The coordinates will be read from file: acetonitrile_c000.xyz
***************************************


Warning: RI is on but no J-basis has been assigned. Assigning Def2/J (nothing to worry about!)
================================================================================

----- Orbital basis set information -----
Your calculation utilizes the basis: def2-TZVP
   F. Weigend and R. Ahlrichs, Phys. Chem. Chem. Phys. 7, 3297 (2005).

----- AuxJ basis set information -----
Your calculation utilizes the auxiliary basis: def2/J
   F. Weigend, Phys. Chem. Chem. Phys. 8, 1057 (2006).

================================================================================
                                        WARNINGS
                       Please study these warnings very carefully!
================================================================================


WARNING: Geometry Optimization
  ===> : Switching off AutoStart
         For restart on a previous wavefunction, please use MOREAD



***************************************
The coordinates will be read from file: geo_opt_tzvp.xyz
***************************************


Warning: RI is on but no J-basis has been assigned. Assigning Def2/J (nothing to worry about!)
================================================================================

----- Orbital basis set information -----
Your calculation utilizes the basis: def2-TZVPD
   F. Weigend and R. Ahlrichs, Phys. Chem. Chem. Phys. 7, 3297 (2005).
   D. Rappoport and F. Furche, J. Chem. Phys. 133, 134105 (2010)
   D. Rappoport, J. Chem. Phys. 155, 124102 (2021).

----- AuxJ basis set information -----
Your calculation utilizes the auxiliary basis: def2/J
   F. Weigend, Phys. Chem. Chem. Phys. 8, 1057 (2006).

================================================================================
                                        WARNINGS
                       Please study these warnings very carefully!
================================================================================


================================================================================
                                       INPUT FILE
================================================================================
NAME = input.dat
|  1> %MaxCore 2000
|  2> 
|  3> %base "geo_opt_tzvp"
|  4> 
|  5> %cpcm
|  6> radius[1]  1.3
|  7> radius[2]  1.601
|  8> radius[5]  2.048
|  9> radius[6]  2.0
| 10> radius[7]  1.83
| 11> radius[8]  1.72
| 12> radius[9]  1.72
| 13> radius[10]  1.771
| 14> radius[13]  2.152
| 15> radius[14]  2.2
| 16> radius[15]  2.106
| 17> radius[16]  2.16
| 18> radius[17]  2.05
| 19> radius[18]  2.184
| 20> radius[22]  2.261
| 21> radius[26]  2.195
| 22> radius[27]  2.153
| 23> radius[31]  2.172
| 24> radius[32]  2.7
| 25> radius[33]  2.148
| 26> radius[34]  2.2
| 27> radius[35]  2.16
| 28> radius[36]  2.354
| 29> radius[49]  2.245
| 30> radius[50]  2.55
| 31> radius[51]  2.402
| 32> radius[53]  2.32
| 33> radius[54]  2.524
| 34> radius[80]  1.978
| 35> radius[82]  2.36
| 36> radius[86]  2.573
| 37> cut_area 0.03571064825863687
| 38> end
| 39> 
| 40> ! OPT CPCM BP86 def2-TZVP
| 41> 
| 42> * xyzfile 0 1 acetonitrile_c000.xyz
| 43> 
| 44> $new_job
| 45> 
| 46> ! CPCM BP86 def2-TZVPD SP
| 47> 
| 48> %base "single_point_tzvpd"
| 49> 
| 50> * xyzfile 0 1 geo_opt_tzvp.xyz
| 51> 
| 52>                          ****END OF INPUT****
================================================================================


                 $$$$$$$$$$$$$$$$$$$$$$$$$$$$$$$$$$$$$$$$$$$$$$ 
                 $ THERE ARE  2 JOBS TO BE PROCESSED THIS RUN $
                 $$$$$$$$$$$$$$$$$$$$$$$$$$$$$$$$$$$$$$$$$$$$$$ 




                 $$$$$$$$$$$$$$$$  JOB NUMBER  1 $$$$$$$$$$$$$$


                       *****************************
                       * Geometry Optimization Run *
                       *****************************

Geometry optimization settings:
Update method            Update   .... BFGS
Choice of coordinates    CoordSys .... (2022) Redundant Internals
Initial Hessian          InHess   .... Almloef's Model
Max. no of cycles        MaxIter  .... 50

Convergence Tolerances:
Energy Change            TolE     ....  5.0000e-06 Eh
Max. Gradient            TolMAXG  ....  3.0000e-04 Eh/bohr
RMS Gradient             TolRMSG  ....  1.0000e-04 Eh/bohr
Max. Displacement        TolMAXD  ....  4.0000e-03 bohr
RMS Displacement         TolRMSD  ....  2.0000e-03 bohr
Strict Convergence                .... False

------------------------------------------------------------------------------
                        ORCA OPTIMIZATION COORDINATE SETUP
------------------------------------------------------------------------------

The optimization will be done in redundant internal coordinates (2022)
Making redundant internal coordinates   ...  (2022 redundants) done
Evaluating the initial hessian          ...  (Almloef) done
Evaluating the coordinates              ...  done
Calculating the B-matrix                .... done
Calculating the G-matrix                .... done
Diagonalizing the G-matrix              .... done
The first mode is                       ....    1
The number of degrees of freedom        ....   12

    -----------------------------------------------------------------
                    Redundant Internal Coordinates


    -----------------------------------------------------------------
         Definition                    Initial Value    Approx d2E/dq
    -----------------------------------------------------------------
      1. B(C   1,C   0)                  1.4527         0.496344   
      2. B(N   2,C   1)                  1.1636         1.285754   
      3. B(H   3,C   0)                  1.0984         0.349131   
      4. B(H   4,C   0)                  1.0985         0.349062   
      5. B(H   5,C   0)                  1.0985         0.349059   
      6. A(H   4,C   0,H   5)          109.1097         0.288014   
      7. A(C   1,C   0,H   3)          109.8267         0.338199   
      8. A(C   1,C   0,H   4)          109.8278         0.338188   
      9. A(H   3,C   0,H   4)          109.1249         0.288024   
     10. A(C   1,C   0,H   5)          109.8130         0.338188   
     11. A(H   3,C   0,H   5)          109.1184         0.288023   
     12. L(C   0,C   1,N   2,H   5, 2) 180.0022         0.472834   
     13. L(C   0,C   1,N   2,H   5, 1) 179.9984         0.472834   
    -----------------------------------------------------------------

Number of atoms                         .... 6
Number of degrees of freedom            .... 13


         *************************************************************
         *                GEOMETRY OPTIMIZATION CYCLE   1            *
         *************************************************************
---------------------------------
CARTESIAN COORDINATES (ANGSTROEM)
---------------------------------
  C     -0.491876   -0.004040   -0.001683
  C      0.960720    0.007693    0.003278
  N      2.124227    0.017117    0.007223
  H     -0.856153   -0.710364   -0.759928
  H     -0.865379   -0.310704    0.984775
  H     -0.871539    1.000297   -0.233666

----------------------------
CARTESIAN COORDINATES (A.U.)
----------------------------
  NO LB      ZA    FRAG     MASS         X           Y           Z
   0 C     6.0000    0    12.011   -0.929510   -0.007634   -0.003180
   1 C     6.0000    0    12.011    1.815497    0.014538    0.006195
   2 N     7.0000    0    14.007    4.014208    0.032347    0.013650
   3 H     1.0000    0     1.008   -1.617896   -1.342393   -1.436055
   4 H     1.0000    0     1.008   -1.635329   -0.587145    1.860954
   5 H     1.0000    0     1.008   -1.646971    1.890287   -0.441564

--------------------------------
INTERNAL COORDINATES (ANGSTROEM)
--------------------------------
 C      0   0   0     0.000000000000     0.00000000     0.00000000
 C      1   0   0     1.452651294505     0.00000000     0.00000000
 N      2   1   0     1.163552544977   179.99806479     0.00000000
 H      1   2   3     1.098420611781   109.82669220    85.41948248
 H      1   2   3     1.098474356098   109.82779595   205.43437523
 H      1   2   3     1.098477146654   109.81295430   325.42189976

---------------------------
INTERNAL COORDINATES (A.U.)
---------------------------
 C      0   0   0     0.000000000000     0.00000000     0.00000000
 C      1   0   0     2.745113114700     0.00000000     0.00000000
 N      2   1   0     2.198795652434   179.99806479     0.00000000
 H      1   2   3     2.075714136121   109.82669220    85.41948248
 H      1   2   3     2.075815698160   109.82779595   205.43437523
 H      1   2   3     2.075820971547   109.81295430   325.42189976

---------------------
BASIS SET INFORMATION
---------------------
There are 3 groups of distinct atoms

 Group   1 Type C   : 11s6p2d1f contracted to 5s3p2d1f pattern {62111/411/11/1}
 Group   2 Type N   : 11s6p2d1f contracted to 5s3p2d1f pattern {62111/411/11/1}
 Group   3 Type H   : 5s1p contracted to 3s1p pattern {311/1}

Atom   0C    basis set group =>   1
Atom   1C    basis set group =>   1
Atom   2N    basis set group =>   2
Atom   3H    basis set group =>   3
Atom   4H    basis set group =>   3
Atom   5H    basis set group =>   3
---------------------------------
AUXILIARY/J BASIS SET INFORMATION
---------------------------------
There are 3 groups of distinct atoms

 Group   1 Type C   : 12s5p4d2f1g contracted to 6s4p3d1f1g pattern {711111/2111/211/2/1}
 Group   2 Type N   : 12s5p4d2f1g contracted to 6s4p3d1f1g pattern {711111/2111/211/2/1}
 Group   3 Type H   : 5s2p1d contracted to 3s1p1d pattern {311/2/1}

Atom   0C    basis set group =>   1
Atom   1C    basis set group =>   1
Atom   2N    basis set group =>   2
Atom   3H    basis set group =>   3
Atom   4H    basis set group =>   3
Atom   5H    basis set group =>   3
------------------------------------------------------------------------------
                             ORCA STARTUP CALCULATIONS
                           -- RI-GTO INTEGRALS CHOSEN --
------------------------------------------------------------------------------
------------------------------------------------------------------------------
                   ___                                                        
                  /   \      - P O W E R E D   B Y -                         
                 /     \                                                     
                 |  |  |   _    _      __       _____    __    __             
                 |  |  |  | |  | |    /  \     |  _  \  |  |  /  |          
                  \  \/   | |  | |   /    \    | | | |  |  | /  /          
                 / \  \   | |__| |  /  /\  \   | |_| |  |  |/  /          
                |  |  |   |  __  | /  /__\  \  |    /   |      \           
                |  |  |   | |  | | |   __   |  |    \   |  |\   \          
                \     /   | |  | | |  |  |  |  | |\  \  |  | \   \       
                 \___/    |_|  |_| |__|  |__|  |_| \__\ |__|  \__/        
                                                                              
                      - O R C A' S   B I G   F R I E N D -                    
                                      &                                       
                       - I N T E G R A L  F E E D E R -                       
                                                                              
 v1 FN, 2020, v2 2021, v3 2022-2024                                           
------------------------------------------------------------------------------


----------------------
SHARK INTEGRAL PACKAGE
----------------------

Number of atoms                             ...      6
Number of basis functions                   ...    111
Number of shells                            ...     45
Maximum angular momentum                    ...      3
Integral batch strategy                     ... SHARK/LIBINT Hybrid
RI-J (if used) integral strategy            ... SPLIT-RIJ (Revised 2003 algorithm where possible)
Printlevel                                  ...      1
Contraction scheme used                     ... SEGMENTED contraction
Prescreening option                         ... SCHWARTZ
   Thresh                                   ... 2.500e-11
   Tcut                                     ... 2.500e-12
   Tpresel                                  ... 2.500e-12 
Coulomb Range Separation                    ... NOT USED
Exchange Range Separation                   ... NOT USED
Multipole approximations                    ... NOT USED
Finite Nucleus Model                        ... NOT USED
CABS basis                                  ... NOT available
Auxiliary Coulomb fitting basis             ... AVAILABLE
   # of basis functions in Aux-J            ...    180
   # of shells in Aux-J                     ...     60
   Maximum angular momentum in Aux-J        ...      4
Auxiliary J/K fitting basis                 ... NOT available
Auxiliary Correlation fitting basis         ... NOT available
Auxiliary 'external' fitting basis          ... NOT available

Checking pre-screening integrals            ... done (  0.0 sec) Dimension = 45
Check shell pair data                       ... done (  0.0 sec)
Shell pair information
Shell pair cut-off parameter TPreSel        ...   2.5e-12
Total number of shell pairs                 ...      1035
Shell pairs after pre-screening             ...      1022
Total number of primitive shell pairs       ...      3156
Primitive shell pairs kept                  ...      2666
          la=0 lb=0:    288 shell pairs
          la=1 lb=0:    288 shell pairs
          la=1 lb=1:     78 shell pairs
          la=2 lb=0:    143 shell pairs
          la=2 lb=1:     72 shell pairs
          la=2 lb=2:     21 shell pairs
          la=3 lb=0:     72 shell pairs
          la=3 lb=1:     36 shell pairs
          la=3 lb=2:     18 shell pairs
          la=3 lb=3:      6 shell pairs

Calculating one electron integrals          ... done (  0.0 sec)
Calculating RI/J V-Matrix + Cholesky decomp.... done (  0.0 sec)
Calculating Nuclear repulsion               ... done (  0.0 sec) ENN=     58.324853887473 Eh

Diagonalization of the overlap matrix:
Smallest eigenvalue                        ... 1.654e-04
Time for diagonalization                   ...    0.001 sec
Threshold for overlap eigenvalues          ... 1.000e-07
Number of eigenvalues below threshold      ... 0
Time for construction of square roots      ...    0.000 sec
Total time needed                          ...    0.001 sec

-------------------
DFT GRID GENERATION
-------------------

General Integration Accuracy     IntAcc      ... 4.388
Radial Grid Type                 RadialGrid  ... OptM3 with GC (2021)
Angular Grid (max. ang.)         AngularGrid ... 4 (Lebedev-302)
Angular grid pruning method      GridPruning ... 4 (adaptive)
Weight generation scheme         WeightScheme... mBecke (2022)
Basis function cutoff            BFCut       ... 1.0000e-11
Integration weight cutoff        WCut        ... 1.0000e-14
Partially contracted basis set               ... off
Rotationally invariant grid construction     ... off
Angular grids for H and He will be reduced by one unit

Total number of grid points                  ...    28083
Total number of batches                      ...      442
Average number of points per batch           ...       63
Average number of grid points per atom       ...     4680
Initializing property integral containers    ... done (  0.0 sec)

SHARK setup successfully completed in   0.1 seconds

Maximum memory used throughout the entire STARTUP-calculation: 14.6 MB
-------------------------------------------------------------------------------
                                 ORCA GUESS
                   Start orbitals & Density for SCF / CASSCF
-------------------------------------------------------------------------------

------------
SCF SETTINGS
------------
Hamiltonian:
 Density Functional     Method          .... DFT(GTOs)
 Exchange Functional    Exchange        .... B88
   X-Alpha parameter    XAlpha          ....  0.666667
   Becke's b parameter  XBeta           ....  0.004200
 Correlation Functional Correlation     .... P86
 LDA part of GGA corr.  LDAOpt          .... PW91-LDA
 Gradients option       PostSCFGGA      .... off
   NL short-range parameter             ....  4.400000
 RI-approximation to the Coulomb term is turned on
   Number of AuxJ basis functions       .... 180


General Settings:
 Integral files         IntName         .... geo_opt_tzvp
 Hartree-Fock type      HFTyp           .... RHF
 Total Charge           Charge          ....    0
 Multiplicity           Mult            ....    1
 Number of Electrons    NEL             ....   22
 Basis Dimension        Dim             ....  111
 Nuclear Repulsion      ENuc            ....     58.3248538875 Eh

Convergence Acceleration:
 AO-DIIS                CNVDIIS         .... on
   Start iteration      DIISMaxIt       ....    12
   Startup error        DIISStart       ....  0.200000
   # of expansion vecs  DIISMaxEq       ....     5
   Bias factor          DIISBfac        ....   1.050
   Max. coefficient     DIISMaxC        ....  10.000
 MO-DIIS                CNVKDIIS        .... off
 Trust-Rad. Augm. Hess. CNVTRAH         .... auto
   Auto Start mean grad. ratio tolernc. ....  1.125000
   Auto Start start iteration           ....    50
   Auto Start num. interpolation iter.  ....    10
   Max. Number of Micro iterations      ....    24
   Max. Number of Macro iterations      .... Maxiter - #DIIS iter
   Number of Davidson start vectors     ....     2
   Converg. threshold    (grad. norm)   ....   1.000e-05
   Grad. Scal. Fac. for Micro threshold ....   0.100
   Minimum threshold for Micro iter.    ....   1.000e-02
   NR start threshold (gradient norm)   ....   1.000e-04
   Initial trust radius                 ....   0.400
   Minimum AH scaling param. (alpha)    ....   1.000
   Maximum AH scaling param. (alpha)    .... 1000.000
   Quad. conv. algorithm                .... NR
   White noise on init. David. guess    .... on
   Maximum white noise                  ....   0.010
   Pseudo random numbers                .... off
   Inactive MOs                         .... canonical
   Orbital update algorithm             .... Taylor
   Preconditioner                       .... Diag
   Full preconditioner red. dimension   ....   250
 SOSCF                  CNVSOSCF        .... on
   Start iteration      SOSCFMaxIt      ....   150
   Startup grad/error   SOSCFStart      ....  0.003300
   Hessian update       SOSCFHessUp     .... L-BFGS
 Level Shifting         CNVShift        .... on
   Level shift para.    LevelShift      ....    0.2500
   Turn off err/grad.   ShiftErr        ....    0.0010
 Zerner damping         CNVZerner       .... off
 Static damping         CNVDamp         .... on
   Fraction old density DampFac         ....    0.7000
   Max. Damping (<1)    DampMax         ....    0.9800
   Min. Damping (>=0)   DampMin         ....    0.0000
   Turn off err/grad.   DampErr         ....    0.1000

SCF Procedure:
 Maximum # iterations   MaxIter         ....   125
 SCF integral mode      SCFMode         .... Direct
   Integral package                     .... SHARK and LIBINT hybrid scheme
 Reset frequency        DirectResetFreq ....    20
 Integral Threshold     Thresh          ....  2.500e-11 Eh
 Primitive CutOff       TCut            ....  2.500e-12 Eh

Convergence Tolerance:
 Convergence Check Mode ConvCheckMode   .... Total+1el-Energy
 Convergence forced     ConvForced      .... 0
 Energy Change          TolE            ....  1.000e-08 Eh
 1-El. energy change                    ....  1.000e-05 Eh
 Orbital Gradient       TolG            ....  1.000e-05
 Orbital Rotation angle TolX            ....  1.000e-05
 DIIS Error             TolErr          ....  5.000e-07

------------------------------
INITIAL GUESS: MODEL POTENTIAL
------------------------------
Loading Hartree-Fock densities                     ... done
Calculating cut-offs                               ... done
Initializing the effective Hamiltonian             ... done
Setting up the integral package (SHARK)            ... done
Starting the Coulomb interaction                   ... done (   0.0 sec)
Making the grid                                    ... done (   0.0 sec)
Mapping shells                                     ... done
Starting the XC term evaluation                    ... done (   0.0 sec)
  promolecular density results
     # of electrons  =     21.999156067
     EX              =    -17.659033231
     EC              =     -0.761021162
     EX+EC           =    -18.420054393
Transforming the Hamiltonian                       ... done (   0.0 sec)
Diagonalizing the Hamiltonian                      ... done (   0.0 sec)
Back transforming the eigenvectors                 ... done (   0.0 sec)
Now organizing SCF variables                       ... done
                      ------------------
                      INITIAL GUESS DONE (   0.0 sec)
                      ------------------
             **** ENERGY FILE WAS UPDATED (geo_opt_tzvp.en.tmp) ****
Finished Guess after   0.1 sec
Maximum memory used throughout the entire GUESS-calculation: 9.5 MB

-------------------------------------------------------------------------------------------
                                      ORCA LEAN-SCF
                              memory conserving SCF solver
-------------------------------------------------------------------------------------------

--------------------
CPCM SOLVATION MODEL
--------------------
CPCM parameters:
  Epsilon                                         ...     INFINITY
  Refrac                                          ...       1.3300
  Rsolv                                           ...       1.3000
  Surface type                                    ... GAUSSIAN VDW
  Discretization scheme                           ... Constant charge density
    Threshold for H atoms                         ...       5.0000 (charges/Ang^2)
    Threshold for non-H atoms                     ...       5.0000 (charges/Ang^2)
  Epsilon function type                           ...         CPCM
Solvent:                                          ... CONDUCTOR
Radii:
  Scheme                                          ... Element-dependent radii
  Radius for C  used is    3.7795 Bohr (=   2.0000 Ang.)
  Radius for N  used is    3.4582 Bohr (=   1.8300 Ang.)
  Radius for H  used is    2.4566 Bohr (=   1.3000 Ang.)
Calculating surface                               ...        done! (  0.0s)
Cavity surface points                             ...          546
Cavity Volume                                     ...     427.7965
Cavity Surface-area                               ...     295.6332
Calculating surface distance matrix               ...        done! (  0.0s)
Performing Cholesky decomposition & store         ...        done! (  0.0s)
Overall time for CPCM initialization              ...                 0.0s

----------------------------------------D-I-I-S--------------------------------------------
Iteration    Energy (Eh)           Delta-E    RMSDP     MaxDP     DIISErr   Damp  Time(sec)
-------------------------------------------------------------------------------------------
               ***  Starting incremental Fock matrix formation  ***
    1    -132.7113444683476189     0.00e+00  3.13e-03  6.79e-02  2.45e-01  0.700   0.1
    2    -132.7659798046487651    -5.46e-02  2.36e-03  4.32e-02  8.12e-02  0.700   0.1
                               ***Turning on AO-DIIS***
    3    -132.7811486278405937    -1.52e-02  9.63e-04  1.72e-02  3.61e-02  0.700   0.1
    4    -132.7921309211365042    -1.10e-02  1.14e-03  2.60e-02  2.35e-02  0.000   0.1
    5    -132.8171229912917113    -2.50e-02  5.81e-04  1.17e-02  9.48e-03  0.000   0.1
                              *** Initializing SOSCF ***
---------------------------------------S-O-S-C-F--------------------------------------
Iteration    Energy (Eh)           Delta-E    RMSDP     MaxDP     MaxGrad    Time(sec)
--------------------------------------------------------------------------------------
    6    -132.8174366607785544    -3.14e-04  1.81e-04  3.83e-03  1.82e-03     0.1
               *** Restarting incremental Fock matrix formation ***
    7    -132.8174510103229693    -1.43e-05  9.37e-05  1.66e-03  1.79e-04     0.1
    8    -132.8174518368917347    -8.27e-07  1.71e-05  2.44e-04  1.64e-04     0.1
    9    -132.8174524317968235    -5.95e-07  2.20e-05  4.23e-04  1.09e-04     0.1
   10    -132.8174521850672534     2.47e-07  1.06e-05  2.04e-04  1.98e-04     0.1
   11    -132.8174525216058441    -3.37e-07  3.13e-06  5.61e-05  7.64e-06     0.1
   12    -132.8174525229878498    -1.38e-09  5.35e-07  7.70e-06  5.11e-06     0.1
                 **** Energy Check signals convergence ****

               *****************************************************
               *                     SUCCESS                       *
               *           SCF CONVERGED AFTER  12 CYCLES          *
               *****************************************************

             **** ENERGY FILE WAS UPDATED (geo_opt_tzvp.en.tmp) ****

----------------
TOTAL SCF ENERGY
----------------

Total Energy       :       -132.81745252298785 Eh           -3614.14662 eV

Components:
Nuclear Repulsion  :         58.32485388747263 Eh            1587.09996 eV
Electronic Energy  :       -191.12739026461196 Eh           -5200.84069 eV
One Electron Energy:       -293.44682822586935 Eh           -7985.09415 eV
Two Electron Energy:        102.31943796125739 Eh            2784.25346 eV
CPCM Dielectric    :         -0.01491614584852 Eh              -0.40589 eV

Virial components:
Potential Energy   :       -264.98325304547035 Eh           -7210.56089 eV
Kinetic Energy     :        132.16580052248250 Eh            3596.41427 eV
Virial Ratio       :          2.00493056447227

DFT components:
N(Alpha)           :       11.000000073411 electrons
N(Beta)            :       11.000000073411 electrons
N(Total)           :       22.000000146821 electrons
E(X)               :      -18.035908385161 Eh       
E(C)               :       -0.768054149408 Eh       
E(XC)              :      -18.803962534569 Eh       

CPCM Solvation Model Properties:
Surface-charge          :         -0.01756513580091
Corrected charge        :         -0.00000000000000
Outlying charge corr.   :          0.00003196260687 Eh               0.00087 eV
Free-energy (cav+disp)  :  This term is not implemented in the current solvation scheme

---------------
SCF CONVERGENCE
---------------

  Last Energy change         ...    1.3820e-09  Tolerance :   1.0000e-08
  Last MAX-Density change    ...    7.7019e-06  Tolerance :   1.0000e-07
  Last RMS-Density change    ...    5.3506e-07  Tolerance :   5.0000e-09
  Last DIIS Error            ...    1.8242e-03  Tolerance :   5.0000e-07
  Last Orbital Gradient      ...    5.1136e-06  Tolerance :   1.0000e-05
  Last Orbital Rotation      ...    6.3887e-06  Tolerance :   1.0000e-05


----------------
ORBITAL ENERGIES
----------------

  NO   OCC          E(Eh)            E(eV) 
   0   2.0000     -14.002787      -381.0352 
   1   2.0000      -9.949667      -270.7442 
   2   2.0000      -9.931841      -270.2591 
   3   2.0000      -0.836267       -22.7560 
   4   2.0000      -0.699958       -19.0468 
   5   2.0000      -0.459116       -12.4932 
   6   2.0000      -0.407078       -11.0772 
   7   2.0000      -0.407061       -11.0767 
   8   2.0000      -0.334162        -9.0930 
   9   2.0000      -0.303581        -8.2609 
  10   2.0000      -0.303575        -8.2607 
  11   0.0000      -0.015570        -0.4237 
  12   0.0000      -0.015564        -0.4235 
  13   0.0000       0.026639         0.7249 
  14   0.0000       0.101624         2.7653 
  15   0.0000       0.107953         2.9376 
  16   0.0000       0.107965         2.9379 
  17   0.0000       0.128722         3.5027 
  18   0.0000       0.201655         5.4873 
  19   0.0000       0.201701         5.4886 
  20   0.0000       0.238212         6.4821 
  21   0.0000       0.243728         6.6322 
*Only the first 10 virtual orbitals were printed.

                    ********************************
                    * MULLIKEN POPULATION ANALYSIS *
                    ********************************

-----------------------
MULLIKEN ATOMIC CHARGES
-----------------------
   0 C :   -0.279010
   1 C :   -0.135859
   2 N :   -0.138041
   3 H :    0.184370
   4 H :    0.184267
   5 H :    0.184273
Sum of atomic charges:    0.0000000

--------------------------------
MULLIKEN REDUCED ORBITAL CHARGES
--------------------------------
  0 C s       :     3.269530  s :     3.269530
      pz      :     1.082273  p :     2.974390
      px      :     0.809799
      py      :     1.082318
      dz2     :     0.003034  d :     0.032811
      dxz     :     0.011361
      dyz     :     0.002182
      dx2y2   :     0.004838
      dxy     :     0.011397
      f0      :     0.000298  f :     0.002279
      f+1     :     0.000344
      f-1     :     0.000461
      f+2     :     0.000310
      f-2     :    -0.000094
      f+3     :     0.000648
      f-3     :     0.000313

  1 C s       :     3.252504  s :     3.252504
      pz      :     0.877349  p :     2.778305
      px      :     1.023611
      py      :     0.877345
      dz2     :     0.001709  d :     0.089685
      dxz     :     0.041506
      dyz     :     0.000347
      dx2y2   :     0.004570
      dxy     :     0.041554
      f0      :     0.002254  f :     0.015364
      f+1     :     0.001250
      f-1     :     0.000375
      f+2     :     0.003753
      f-2     :     0.000029
      f+3     :     0.002067
      f-3     :     0.005635

  2 N s       :     3.642480  s :     3.642480
      pz      :     1.113889  p :     3.461877
      px      :     1.234074
      py      :     1.113914
      dz2     :     0.001261  d :     0.032005
      dxz     :     0.013480
      dyz     :    -0.000001
      dx2y2   :     0.003787
      dxy     :     0.013478
      f0      :     0.000325  f :     0.001679
      f+1     :    -0.000021
      f-1     :     0.000054
      f+2     :     0.000542
      f-2     :     0.000000
      f+3     :    -0.000034
      f-3     :     0.000812

  3 H s       :     0.794439  s :     0.794439
      pz      :     0.008240  p :     0.021191
      px      :     0.005207
      py      :     0.007744

  4 H s       :     0.794542  s :     0.794542
      pz      :     0.010837  p :     0.021191
      px      :     0.005259
      py      :     0.005096

  5 H s       :     0.794535  s :     0.794535
      pz      :     0.004833  p :     0.021192
      px      :     0.005295
      py      :     0.011065



                     *******************************
                     * LOEWDIN POPULATION ANALYSIS *
                     *******************************

----------------------
LOEWDIN ATOMIC CHARGES
----------------------
   0 C :   -0.257795
   1 C :   -0.213649
   2 N :   -0.026798
   3 H :    0.166088
   4 H :    0.166064
   5 H :    0.166090

-------------------------------
LOEWDIN REDUCED ORBITAL CHARGES
-------------------------------
  0 C s       :     2.829721  s :     2.829721
      pz      :     1.074006  p :     3.178088
      px      :     1.030058
      py      :     1.074024
      dz2     :     0.034652  d :     0.225701
      dxz     :     0.054916
      dyz     :     0.024053
      dx2y2   :     0.056795
      dxy     :     0.055284
      f0      :     0.002581  f :     0.024286
      f+1     :     0.004009
      f-1     :     0.002059
      f+2     :     0.003541
      f-2     :     0.002212
      f+3     :     0.005192
      f-3     :     0.004693

  1 C s       :     2.852549  s :     2.852549
      pz      :     0.833976  p :     2.857647
      px      :     1.189679
      py      :     0.833992
      dz2     :     0.039027  d :     0.444594
      dxz     :     0.144229
      dyz     :     0.000277
      dx2y2   :     0.116741
      dxy     :     0.144319
      f0      :     0.006339  f :     0.058860
      f+1     :     0.009391
      f-1     :     0.001057
      f+2     :     0.010559
      f-2     :     0.000031
      f+3     :     0.015635
      f-3     :     0.015848

  2 N s       :     3.310350  s :     3.310350
      pz      :     1.058366  p :     3.603768
      px      :     1.486995
      py      :     1.058406
      dz2     :     0.011363  d :     0.097593
      dxz     :     0.026070
      dyz     :     0.000003
      dx2y2   :     0.034085
      dxy     :     0.026072
      f0      :     0.001544  f :     0.015088
      f+1     :     0.002570
      f-1     :     0.000258
      f+2     :     0.002573
      f-2     :     0.000001
      f+3     :     0.004282
      f-3     :     0.003861

  3 H s       :     0.772593  s :     0.772593
      pz      :     0.024885  p :     0.061319
      px      :     0.013120
      py      :     0.023314

  4 H s       :     0.772629  s :     0.772629
      pz      :     0.033079  p :     0.061307
      px      :     0.013247
      py      :     0.014981

  5 H s       :     0.772604  s :     0.772604
      pz      :     0.014155  p :     0.061306
      px      :     0.013336
      py      :     0.033815



                      *****************************
                      * MAYER POPULATION ANALYSIS *
                      *****************************

  NA   - Mulliken gross atomic population
  ZA   - Total nuclear charge
  QA   - Mulliken gross atomic charge
  VA   - Mayer's total valence
  BVA  - Mayer's bonded valence
  FA   - Mayer's free valence

  ATOM       NA         ZA         QA         VA         BVA        FA
  0 C      6.2790     6.0000    -0.2790     3.8021     3.8021     0.0000
  1 C      6.1359     6.0000    -0.1359     4.0330     4.0330     0.0000
  2 N      7.1380     7.0000    -0.1380     3.1255     3.1255     0.0000
  3 H      0.8156     1.0000     0.1844     0.9554     0.9554     0.0000
  4 H      0.8157     1.0000     0.1843     0.9555     0.9555     0.0000
  5 H      0.8157     1.0000     0.1843     0.9555     0.9555    -0.0000

  Mayer bond orders larger than 0.100000
B(  0-C ,  1-C ) :   0.9892 B(  0-C ,  3-H ) :   0.9285 B(  0-C ,  4-H ) :   0.9286 
B(  0-C ,  5-H ) :   0.9286 B(  1-C ,  2-N ) :   3.0280 

-------
TIMINGS
-------

Total SCF time: 0 days 0 hours 0 min 1 sec 

Total time                  ....       1.578 sec
Sum of individual times     ....       1.570 sec  ( 99.5%)

SCF preparation             ....       0.017 sec  (  1.1%)
Fock matrix formation       ....       1.524 sec  ( 96.6%)
  Startup                   ....       0.002 sec  (  0.1% of F)
  Split-RI-J                ....       0.189 sec  ( 12.4% of F)
  XC integration            ....       1.049 sec  ( 68.8% of F)
    Basis function eval.    ....       0.371 sec  ( 35.4% of XC)
    Density eval.           ....       0.183 sec  ( 17.5% of XC)
    XC-Functional eval.     ....       0.053 sec  (  5.1% of XC)
    XC-Potential eval.      ....       0.368 sec  ( 35.0% of XC)
  CPCM terms                ....       0.263 sec  ( 17.3% of F)
Diagonalization             ....       0.000 sec  (  0.0%)
Density matrix formation    ....       0.005 sec  (  0.3%)
Total Energy calculation    ....       0.002 sec  (  0.1%)
Population analysis         ....       0.002 sec  (  0.1%)
Orbital Transformation      ....       0.002 sec  (  0.1%)
Orbital Orthonormalization  ....       0.000 sec  (  0.0%)
DIIS solution               ....       0.012 sec  (  0.7%)
SOSCF solution              ....       0.006 sec  (  0.4%)
Finished LeanSCF after   1.6 sec

Maximum memory used throughout the entire LEANSCF-calculation: 9.7 MB

-------------------------   --------------------
FINAL SINGLE POINT ENERGY      -132.817452522988
-------------------------   --------------------

------------------------------------------------------------------------------
                         ORCA SCF GRADIENT CALCULATION
------------------------------------------------------------------------------

Nuc. rep. gradient        (SHARK) ... done (  0.0 sec)
HCore & Overlap gradient  (SHARK) ... done (  0.0 sec)
Split-RIJ-J gradient      (SHARK) ... done (  0.1 sec)
XC gradient                       ... done (  0.4 sec)
CPCM gradient                     ... done (  0.1 sec)

------------------
CARTESIAN GRADIENT
------------------

   1   C   :   -0.000937267    0.000001708   -0.000007409
   2   C   :    0.000668366   -0.000004802   -0.000003851
   3   N   :    0.000048976   -0.000004827   -0.000001985
   4   H   :    0.000071530    0.000000950    0.000001961
   5   H   :    0.000074579    0.000006983    0.000003312
   6   H   :    0.000073816   -0.000000012    0.000007972

Difference to translation invariance:
           :   -0.0000000000   -0.0000000000   -0.0000000000

Difference to rotation invariance:
           :   -0.0000011065    0.0000410542   -0.0000607996

Norm of the Cartesian gradient     ...    0.0011592927
RMS gradient                       ...    0.0002732479
MAX gradient                       ...    0.0009372672

-------
TIMINGS
-------

Total SCF gradient time     ....        0.626 sec

Densities                   ....       0.000 sec  (  0.0%)
One electron gradient       ....       0.011 sec  (  1.8%)
RI-J Coulomb gradient       ....       0.109 sec  ( 17.4%)
XC gradient                 ....       0.408 sec  ( 65.1%)
CPCM gradient               ....       0.050 sec  (  8.0%)
   A-Matrix (El+Nuc)        ....       0.005 sec  (  0.7%)
   Potential                ....       0.046 sec  (  7.3%)

Maximum memory used throughout the entire SCFGRAD-calculation: 13.1 MB
------------------------------------------------------------------------------
                         ORCA GEOMETRY RELAXATION STEP
------------------------------------------------------------------------------

Reading the OPT-File                    .... done
Getting information on internals        .... done
Copying old internal coords+grads       .... done
Making the new internal coordinates     .... (2022 redundants) done
Validating the new internal coordinates .... (2022 redundants) done
Calculating the B-matrix                .... done
Calculating the G,G- and P matrices     .... done
Transforming gradient to internals      .... done
Projecting the internal gradient        .... done
Number of atoms                         ....   6
Number of internal coordinates          ....  13
Current Energy                          ....  -132.817452523 Eh
Current gradient norm                   ....     0.001159293 Eh/bohr
Maximum allowed component of the step   ....  0.300
Current trust radius                    ....  0.300
Evaluating the initial hessian          ....  (Almloef) done
Projecting the Hessian                  .... done
Forming the augmented Hessian           .... done
Diagonalizing the augmented Hessian     .... done
Last element of RFO vector              ....  0.999998792
Lowest eigenvalues of augmented Hessian:
 -0.000001141  0.288017523  0.288023613  0.312784607  0.338188005
Length of the computed step             ....  0.001554038
The final length of the internal step   ....  0.001554038
Converting the step to Cartesian space:
 Initial RMS(Int)=    0.0004310125
Transforming coordinates:
 Iter   0:  RMS(Cart)=    0.0003204493 RMS(Int)=    0.0004310183
done
Storing new coordinates                 .... done

                                .--------------------.
          ----------------------|Geometry convergence|-------------------------
          Item                value                   Tolerance       Converged
          ---------------------------------------------------------------------
          RMS gradient        0.0002055092            0.0001000000      NO
          MAX gradient        0.0007172173            0.0003000000      NO
          RMS step            0.0004310125            0.0020000000      YES
          MAX step            0.0014449983            0.0040000000      YES
          ........................................................
          Max(Bonds)      0.0008      Max(Angles)    0.01
          Max(Dihed)        0.00      Max(Improp)    0.00
          ---------------------------------------------------------------------

The optimization has not yet converged - more geometry cycles are needed


    ---------------------------------------------------------------------------
                         Redundant Internal Coordinates
                            (Angstroem and degrees)

        Definition                    Value    dE/dq     Step     New-Value
    ----------------------------------------------------------------------------
     1. B(C   1,C   0)                1.4527  0.000717 -0.0008    1.4519   
     2. B(N   2,C   1)                1.1636  0.000049 -0.0000    1.1635   
     3. B(H   3,C   0)                1.0984 -0.000024  0.0000    1.0985   
     4. B(H   4,C   0)                1.0985 -0.000025  0.0000    1.0985   
     5. B(H   5,C   0)                1.0985 -0.000028  0.0000    1.0985   
     6. A(H   4,C   0,H   5)          109.11  0.000064   -0.01    109.10   
     7. A(C   1,C   0,H   3)          109.83 -0.000073    0.01    109.84   
     8. A(C   1,C   0,H   4)          109.83 -0.000074    0.01    109.84   
     9. A(H   3,C   0,H   4)          109.12  0.000073   -0.01    109.11   
    10. A(C   1,C   0,H   5)          109.81 -0.000064    0.01    109.82   
    11. A(H   3,C   0,H   5)          109.12  0.000076   -0.01    109.10   
    12. L(C   0,C   1,N   2,H   5, 2) 180.00 -0.000002    0.00    180.00   
    13. L(C   0,C   1,N   2,H   5, 1) 180.00 -0.000003    0.00    180.00   
    ----------------------------------------------------------------------------

Geometry step timings:
Preparation and reading OPT file:      0.000 s (27.375 %)
Internal coordinates            :      0.000 s ( 2.750 %)
B/P matrices and projection     :      0.000 s ( 7.500 %)
Hessian update/contruction      :      0.000 s (28.375 %)
Making the step                 :      0.000 s ( 5.375 %)
Converting the step to Cartesian:      0.000 s ( 3.125 %)
Storing new data                :      0.000 s ( 7.000 %)
Checking convergence            :      0.000 s ( 0.125 %)
Final printing                  :      0.000 s (18.250 %)
Total time                      :      0.001 s

Time for energy+gradient        :      2.535 s
Time for complete geometry iter :      2.584 s

         *************************************************************
         *                GEOMETRY OPTIMIZATION CYCLE   2            *
         *************************************************************
---------------------------------
CARTESIAN COORDINATES (ANGSTROEM)
---------------------------------
  C     -0.491495   -0.004041   -0.001675
  C      0.960336    0.007694    0.003279
  N      2.123824    0.017118    0.007219
  H     -0.856025   -0.710325   -0.759888
  H     -0.865248   -0.310700    0.984732
  H     -0.871392    1.000252   -0.233667

----------------------------
CARTESIAN COORDINATES (A.U.)
----------------------------
  NO LB      ZA    FRAG     MASS         X           Y           Z
   0 C     6.0000    0    12.011   -0.928790   -0.007636   -0.003165
   1 C     6.0000    0    12.011    1.814772    0.014540    0.006196
   2 N     7.0000    0    14.007    4.013445    0.032349    0.013643
   3 H     1.0000    0     1.008   -1.617653   -1.342319   -1.435981
   4 H     1.0000    0     1.008   -1.635082   -0.587138    1.860873
   5 H     1.0000    0     1.008   -1.646692    1.890203   -0.441566

--------------------------------
INTERNAL COORDINATES (ANGSTROEM)
--------------------------------
 C      0   0   0     0.000000000000     0.00000000     0.00000000
 C      1   0   0     1.451886634326     0.00000000     0.00000000
 N      2   1   0     1.163532407318   179.99828015     0.00000000
 H      1   2   3     1.098456759541   109.84009887    76.43201526
 H      1   2   3     1.098512079284   109.84126940   196.44722077
 H      1   2   3     1.098520346722   109.82474050   316.43607973

---------------------------
INTERNAL COORDINATES (A.U.)
---------------------------
 C      0   0   0     0.000000000000     0.00000000     0.00000000
 C      1   0   0     2.743668116377     0.00000000     0.00000000
 N      2   1   0     2.198757597773   179.99828015     0.00000000
 H      1   2   3     2.075782445486   109.84009887    76.43201526
 H      1   2   3     2.075886984652   109.84126940   196.44722077
 H      1   2   3     2.075902607844   109.82474050   316.43607973

------------------------------------------------------------------------------
                   ___                                                        
                  /   \      - P O W E R E D   B Y -                         
                 /     \                                                     
                 |  |  |   _    _      __       _____    __    __             
                 |  |  |  | |  | |    /  \     |  _  \  |  |  /  |          
                  \  \/   | |  | |   /    \    | | | |  |  | /  /          
                 / \  \   | |__| |  /  /\  \   | |_| |  |  |/  /          
                |  |  |   |  __  | /  /__\  \  |    /   |      \           
                |  |  |   | |  | | |   __   |  |    \   |  |\   \          
                \     /   | |  | | |  |  |  |  | |\  \  |  | \   \       
                 \___/    |_|  |_| |__|  |__|  |_| \__\ |__|  \__/        
                                                                              
                      - O R C A' S   B I G   F R I E N D -                    
                                      &                                       
                       - I N T E G R A L  F E E D E R -                       
                                                                              
 v1 FN, 2020, v2 2021, v3 2022-2024                                           
------------------------------------------------------------------------------


----------------------
SHARK INTEGRAL PACKAGE
----------------------

Number of atoms                             ...      6
Number of basis functions                   ...    111
Number of shells                            ...     45
Maximum angular momentum                    ...      3
Integral batch strategy                     ... SHARK/LIBINT Hybrid
RI-J (if used) integral strategy            ... SPLIT-RIJ (Revised 2003 algorithm where possible)
Printlevel                                  ...      1
Contraction scheme used                     ... SEGMENTED contraction
Prescreening option                         ... SCHWARTZ
   Thresh                                   ... 2.500e-11
   Tcut                                     ... 2.500e-12
   Tpresel                                  ... 2.500e-12 
Coulomb Range Separation                    ... NOT USED
Exchange Range Separation                   ... NOT USED
Multipole approximations                    ... NOT USED
Finite Nucleus Model                        ... NOT USED
CABS basis                                  ... NOT available
Auxiliary Coulomb fitting basis             ... AVAILABLE
   # of basis functions in Aux-J            ...    180
   # of shells in Aux-J                     ...     60
   Maximum angular momentum in Aux-J        ...      4
Auxiliary J/K fitting basis                 ... NOT available
Auxiliary Correlation fitting basis         ... NOT available
Auxiliary 'external' fitting basis          ... NOT available

Checking pre-screening integrals            ... done (  0.0 sec) Dimension = 45
Check shell pair data                       ... done (  0.0 sec)
Shell pair information
Shell pair cut-off parameter TPreSel        ...   2.5e-12
Total number of shell pairs                 ...      1035
Shell pairs after pre-screening             ...      1022
Total number of primitive shell pairs       ...      3156
Primitive shell pairs kept                  ...      2666
          la=0 lb=0:    288 shell pairs
          la=1 lb=0:    288 shell pairs
          la=1 lb=1:     78 shell pairs
          la=2 lb=0:    143 shell pairs
          la=2 lb=1:     72 shell pairs
          la=2 lb=2:     21 shell pairs
          la=3 lb=0:     72 shell pairs
          la=3 lb=1:     36 shell pairs
          la=3 lb=2:     18 shell pairs
          la=3 lb=3:      6 shell pairs

Calculating one electron integrals          ... done (  0.0 sec)
Calculating RI/J V-Matrix + Cholesky decomp.... done (  0.0 sec)
Calculating Nuclear repulsion               ... done (  0.0 sec) ENN=     58.335984577161 Eh

Diagonalization of the overlap matrix:
Smallest eigenvalue                        ... 1.647e-04
Time for diagonalization                   ...    0.001 sec
Threshold for overlap eigenvalues          ... 1.000e-07
Number of eigenvalues below threshold      ... 0
Time for construction of square roots      ...    0.000 sec
Total time needed                          ...    0.001 sec

-------------------
DFT GRID GENERATION
-------------------

General Integration Accuracy     IntAcc      ... 4.388
Radial Grid Type                 RadialGrid  ... OptM3 with GC (2021)
Angular Grid (max. ang.)         AngularGrid ... 4 (Lebedev-302)
Angular grid pruning method      GridPruning ... 4 (adaptive)
Weight generation scheme         WeightScheme... mBecke (2022)
Basis function cutoff            BFCut       ... 1.0000e-11
Integration weight cutoff        WCut        ... 1.0000e-14
Partially contracted basis set               ... off
Rotationally invariant grid construction     ... off
Angular grids for H and He will be reduced by one unit

Total number of grid points                  ...    28083
Total number of batches                      ...      442
Average number of points per batch           ...       63
Average number of grid points per atom       ...     4680
Initializing property integral containers    ... done (  0.0 sec)

SHARK setup successfully completed in   0.1 seconds

Maximum memory used throughout the entire STARTUP-calculation: 14.7 MB
Occupation numbers will be reassigned to an Aufbau configuration
             **** ENERGY FILE WAS UPDATED (geo_opt_tzvp.en.tmp) ****
Finished Guess after   0.0 sec
Maximum memory used throughout the entire GUESS-calculation: 9.6 MB
--------------------
CPCM SOLVATION MODEL
--------------------
CPCM parameters:
  Epsilon                                         ...     INFINITY
  Refrac                                          ...       1.3300
  Rsolv                                           ...       1.3000
  Surface type                                    ... GAUSSIAN VDW
  Discretization scheme                           ... Constant charge density
    Threshold for H atoms                         ...       5.0000 (charges/Ang^2)
    Threshold for non-H atoms                     ...       5.0000 (charges/Ang^2)
  Epsilon function type                           ...         CPCM
Solvent:                                          ... CONDUCTOR
Radii:
  Scheme                                          ... Element-dependent radii
  Radius for C  used is    3.7795 Bohr (=   2.0000 Ang.)
  Radius for N  used is    3.4582 Bohr (=   1.8300 Ang.)
  Radius for H  used is    2.4566 Bohr (=   1.3000 Ang.)
Calculating surface                               ...        done! (  0.0s)
Cavity surface points                             ...          546
Cavity Volume                                     ...     427.7383
Cavity Surface-area                               ...     295.5973
Calculating surface distance matrix               ...        done! (  0.0s)
Performing Cholesky decomposition & store         ...        done! (  0.0s)
Overall time for CPCM initialization              ...                 0.0s

----------------------------------------D-I-I-S--------------------------------------------
Iteration    Energy (Eh)           Delta-E    RMSDP     MaxDP     DIISErr   Damp  Time(sec)
-------------------------------------------------------------------------------------------
               ***  Starting incremental Fock matrix formation  ***
                              *** Initializing SOSCF ***
---------------------------------------S-O-S-C-F--------------------------------------
Iteration    Energy (Eh)           Delta-E    RMSDP     MaxDP     MaxGrad    Time(sec)
--------------------------------------------------------------------------------------
    1    -132.8174531307160464     0.00e+00  1.38e-05  2.89e-04  2.54e-05     0.1
               *** Restarting incremental Fock matrix formation ***
    2    -132.8174533061460352    -1.75e-07  6.83e-06  1.26e-04  5.23e-05     0.1
    3    -132.8174531406921233     1.65e-07  5.69e-06  9.92e-05  1.66e-04     0.1
    4    -132.8174533368029984    -1.96e-07  2.01e-06  3.89e-05  7.80e-06     0.1
    5    -132.8174533359152747     8.88e-10  9.81e-07  1.72e-05  8.41e-06     0.1
                 **** Energy Check signals convergence ****

               *****************************************************
               *                     SUCCESS                       *
               *           SCF CONVERGED AFTER   5 CYCLES          *
               *****************************************************

             **** ENERGY FILE WAS UPDATED (geo_opt_tzvp.en.tmp) ****

----------------
TOTAL SCF ENERGY
----------------

Total Energy       :       -132.81745333591527 Eh           -3614.14664 eV

Components:
Nuclear Repulsion  :         58.33598457716072 Eh            1587.40284 eV
Electronic Energy  :       -191.13851551809125 Eh           -5201.14343 eV
One Electron Energy:       -293.46917504210825 Eh           -7985.70224 eV
Two Electron Energy:        102.33065952401701 Eh            2784.55881 eV
CPCM Dielectric    :         -0.01492239498474 Eh              -0.40606 eV

Virial components:
Potential Energy   :       -264.98455806595371 Eh           -7210.59640 eV
Kinetic Energy     :        132.16710473003843 Eh            3596.44976 eV
Virial Ratio       :          2.00492065410077

DFT components:
N(Alpha)           :       11.000000076467 electrons
N(Beta)            :       11.000000076467 electrons
N(Total)           :       22.000000152934 electrons
E(X)               :      -18.036236312634 Eh       
E(C)               :       -0.768082313129 Eh       
E(XC)              :      -18.804318625763 Eh       

CPCM Solvation Model Properties:
Surface-charge          :         -0.01756532165520
Corrected charge        :         -0.00000000000000
Outlying charge corr.   :          0.00003196497537 Eh               0.00087 eV
Free-energy (cav+disp)  :  This term is not implemented in the current solvation scheme

---------------
SCF CONVERGENCE
---------------

  Last Energy change         ...   -8.8772e-10  Tolerance :   1.0000e-08
  Last MAX-Density change    ...    1.7194e-05  Tolerance :   1.0000e-07
  Last RMS-Density change    ...    9.8077e-07  Tolerance :   5.0000e-09
  Last DIIS Error            ...    3.5571e-04  Tolerance :   5.0000e-07
  Last Orbital Gradient      ...    8.4116e-06  Tolerance :   1.0000e-05
  Last Orbital Rotation      ...    7.2393e-06  Tolerance :   1.0000e-05


Total SCF time: 0 days 0 hours 0 min 0 sec 
Finished LeanSCF after   0.7 sec

Maximum memory used throughout the entire LEANSCF-calculation: 9.9 MB

-------------------------   --------------------
FINAL SINGLE POINT ENERGY      -132.817453335915
-------------------------   --------------------

------------------------------------------------------------------------------
                         ORCA SCF GRADIENT CALCULATION
------------------------------------------------------------------------------

Nuc. rep. gradient        (SHARK) ... done (  0.0 sec)
HCore & Overlap gradient  (SHARK) ... done (  0.0 sec)
Split-RIJ-J gradient      (SHARK) ... done (  0.1 sec)
XC gradient                       ... done (  0.4 sec)
CPCM gradient                     ... done (  0.0 sec)

------------------
CARTESIAN GRADIENT
------------------

   1   C   :   -0.000477961    0.000000883   -0.000003564
   2   C   :    0.000267176   -0.000005653   -0.000005591
   3   N   :    0.000004535   -0.000005711   -0.000002141
   4   H   :    0.000066496   -0.000004396   -0.000004389
   5   H   :    0.000069962    0.000002584    0.000012499
   6   H   :    0.000069792    0.000012293    0.000003187

Difference to translation invariance:
           :   -0.0000000000    0.0000000000    0.0000000000

Difference to rotation invariance:
           :   -0.0000011227    0.0000411259   -0.0000606195

Norm of the Cartesian gradient     ...    0.0005608155
RMS gradient                       ...    0.0001321855
MAX gradient                       ...    0.0004779609

-------
TIMINGS
-------

Total SCF gradient time     ....        0.620 sec

Densities                   ....       0.000 sec  (  0.0%)
One electron gradient       ....       0.011 sec  (  1.8%)
RI-J Coulomb gradient       ....       0.108 sec  ( 17.3%)
XC gradient                 ....       0.409 sec  ( 65.9%)
CPCM gradient               ....       0.048 sec  (  7.7%)
   A-Matrix (El+Nuc)        ....       0.004 sec  (  0.7%)
   Potential                ....       0.043 sec  (  7.0%)

Maximum memory used throughout the entire SCFGRAD-calculation: 13.0 MB
------------------------------------------------------------------------------
                         ORCA GEOMETRY RELAXATION STEP
------------------------------------------------------------------------------

Reading the OPT-File                    .... done
Getting information on internals        .... done
Copying old internal coords+grads       .... done
Making the new internal coordinates     .... (2022 redundants) done
Validating the new internal coordinates .... (2022 redundants) done
Calculating the B-matrix                .... done
Calculating the G,G- and P matrices     .... done
Transforming gradient to internals      .... done
Projecting the internal gradient        .... done
Number of atoms                         ....   6
Number of internal coordinates          ....  13
Current Energy                          ....  -132.817453336 Eh
Current gradient norm                   ....     0.000560816 Eh/bohr
Maximum allowed component of the step   ....  0.300
Current trust radius                    ....  0.300
Updating the Hessian (BFGS)             .... done
Forming the augmented Hessian           .... done
Diagonalizing the augmented Hessian     .... done
Last element of RFO vector              ....  0.999998882
Lowest eigenvalues of augmented Hessian:
 -0.000000474  0.204665169  0.288023058  0.288052669  0.338176639
Length of the computed step             ....  0.001495637
The final length of the internal step   ....  0.001495637
Converting the step to Cartesian space:
 Initial RMS(Int)=    0.0004148150
Transforming coordinates:
 Iter   0:  RMS(Cart)=    0.0002305199 RMS(Int)=    0.0004148538
done
Storing new coordinates                 .... done
The predicted energy change is          ....    -0.000000237
Previously predicted energy change      ....    -0.000000570
Actually observed energy change         ....    -0.000000813
Ratio of predicted to observed change   ....     1.425350759
New trust radius                        ....     0.300000000

                                .--------------------.
          ----------------------|Geometry convergence|-------------------------
          Item                value                   Tolerance       Converged
          ---------------------------------------------------------------------
          Energy change      -0.0000008129            0.0000050000      YES
          RMS gradient        0.0000893987            0.0001000000      YES
          MAX gradient        0.0002715824            0.0003000000      YES
          RMS step            0.0004148150            0.0020000000      YES
          MAX step            0.0010905690            0.0040000000      YES
          ........................................................
          Max(Bonds)      0.0006      Max(Angles)    0.03
          Max(Dihed)        0.00      Max(Improp)    0.00
          ---------------------------------------------------------------------

                    ***********************HURRAY********************
                    ***        THE OPTIMIZATION HAS CONVERGED     ***
                    *************************************************


    ---------------------------------------------------------------------------
                         Redundant Internal Coordinates

                          --- Optimized Parameters ---  
                            (Angstroem and degrees)

        Definition                    OldVal   dE/dq     Step     FinalVal
    ----------------------------------------------------------------------------
     1. B(C   1,C   0)                1.4519  0.000272 -0.0006    1.4513   
     2. B(N   2,C   1)                1.1635  0.000004 -0.0000    1.1635   
     3. B(H   3,C   0)                1.0985 -0.000014  0.0000    1.0985   
     4. B(H   4,C   0)                1.0985 -0.000014  0.0000    1.0986   
     5. B(H   5,C   0)                1.0985 -0.000015  0.0000    1.0986   
     6. A(H   4,C   0,H   5)          109.10  0.000066   -0.02    109.08   
     7. A(C   1,C   0,H   3)          109.84 -0.000071    0.02    109.86   
     8. A(C   1,C   0,H   4)          109.84 -0.000072    0.02    109.87   
     9. A(H   3,C   0,H   4)          109.11  0.000071   -0.02    109.09   
    10. A(C   1,C   0,H   5)          109.82 -0.000066    0.02    109.85   
    11. A(H   3,C   0,H   5)          109.10  0.000074   -0.03    109.08   
    12. L(C   0,C   1,N   2,H   5, 2) 180.00 -0.000002    0.00    180.00   
    13. L(C   0,C   1,N   2,H   5, 1) 180.00 -0.000002    0.00    180.00   
    ----------------------------------------------------------------------------

Geometry step timings:
Preparation and reading OPT file:      0.000 s (24.794 %)
Internal coordinates            :      0.000 s ( 2.938 %)
B/P matrices and projection     :      0.000 s ( 9.048 %)
Hessian update/contruction      :      0.000 s (31.375 %)
Making the step                 :      0.000 s ( 4.935 %)
Converting the step to Cartesian:      0.000 s ( 2.115 %)
Storing new data                :      0.000 s ( 5.993 %)
Checking convergence            :      0.000 s ( 0.940 %)
Final printing                  :      0.000 s (17.861 %)
Total time                      :      0.001 s
                 *******************************************************
                 *** FINAL ENERGY EVALUATION AT THE STATIONARY POINT ***
                 ***               (AFTER    2 CYCLES)               ***
                 *******************************************************
---------------------------------
CARTESIAN COORDINATES (ANGSTROEM)
---------------------------------
  C     -0.491082   -0.004041   -0.001665
  C      0.960171    0.007699    0.003281
  N      2.123654    0.017121    0.007215
  H     -0.856061   -0.710240   -0.759802
  H     -0.865279   -0.310678    0.984625
  H     -0.871403    1.000140   -0.233654

----------------------------
CARTESIAN COORDINATES (A.U.)
----------------------------
  NO LB      ZA    FRAG     MASS         X           Y           Z
   0 C     6.0000    0    12.011   -0.928011   -0.007637   -0.003146
   1 C     6.0000    0    12.011    1.814461    0.014548    0.006200
   2 N     7.0000    0    14.007    4.013125    0.032355    0.013635
   3 H     1.0000    0     1.008   -1.617721   -1.342160   -1.435818
   4 H     1.0000    0     1.008   -1.635141   -0.587096    1.860672
   5 H     1.0000    0     1.008   -1.646713    1.889990   -0.441542

--------------------------------
INTERNAL COORDINATES (ANGSTROEM)
--------------------------------
 C      0   0   0     0.000000000000     0.00000000     0.00000000
 C      1   0   0     1.451309530047     0.00000000     0.00000000
 N      2   1   0     1.163527362888   179.99841045     0.00000000
 H      1   2   3     1.098498270451   109.86421628    62.47971157
 H      1   2   3     1.098552351079   109.86547898   182.49535883
 H      1   2   3     1.098563769871   109.84703052   302.48575760

---------------------------
INTERNAL COORDINATES (A.U.)
---------------------------
 C      0   0   0     0.000000000000     0.00000000     0.00000000
 C      1   0   0     2.742577547339     0.00000000     0.00000000
 N      2   1   0     2.198748065182   179.99841045     0.00000000
 H      1   2   3     2.075860889738   109.86421628    62.47971157
 H      1   2   3     2.075963087314   109.86547898   182.49535883
 H      1   2   3     2.075984665704   109.84703052   302.48575760

---------------------
BASIS SET INFORMATION
---------------------
There are 3 groups of distinct atoms

 Group   1 Type C   : 11s6p2d1f contracted to 5s3p2d1f pattern {62111/411/11/1}
 Group   2 Type N   : 11s6p2d1f contracted to 5s3p2d1f pattern {62111/411/11/1}
 Group   3 Type H   : 5s1p contracted to 3s1p pattern {311/1}

Atom   0C    basis set group =>   1
Atom   1C    basis set group =>   1
Atom   2N    basis set group =>   2
Atom   3H    basis set group =>   3
Atom   4H    basis set group =>   3
Atom   5H    basis set group =>   3
---------------------------------
AUXILIARY/J BASIS SET INFORMATION
---------------------------------
There are 3 groups of distinct atoms

 Group   1 Type C   : 12s5p4d2f1g contracted to 6s4p3d1f1g pattern {711111/2111/211/2/1}
 Group   2 Type N   : 12s5p4d2f1g contracted to 6s4p3d1f1g pattern {711111/2111/211/2/1}
 Group   3 Type H   : 5s2p1d contracted to 3s1p1d pattern {311/2/1}

Atom   0C    basis set group =>   1
Atom   1C    basis set group =>   1
Atom   2N    basis set group =>   2
Atom   3H    basis set group =>   3
Atom   4H    basis set group =>   3
Atom   5H    basis set group =>   3
------------------------------------------------------------------------------
                             ORCA STARTUP CALCULATIONS
                           -- RI-GTO INTEGRALS CHOSEN --
------------------------------------------------------------------------------
------------------------------------------------------------------------------
                   ___                                                        
                  /   \      - P O W E R E D   B Y -                         
                 /     \                                                     
                 |  |  |   _    _      __       _____    __    __             
                 |  |  |  | |  | |    /  \     |  _  \  |  |  /  |          
                  \  \/   | |  | |   /    \    | | | |  |  | /  /          
                 / \  \   | |__| |  /  /\  \   | |_| |  |  |/  /          
                |  |  |   |  __  | /  /__\  \  |    /   |      \           
                |  |  |   | |  | | |   __   |  |    \   |  |\   \          
                \     /   | |  | | |  |  |  |  | |\  \  |  | \   \       
                 \___/    |_|  |_| |__|  |__|  |_| \__\ |__|  \__/        
                                                                              
                      - O R C A' S   B I G   F R I E N D -                    
                                      &                                       
                       - I N T E G R A L  F E E D E R -                       
                                                                              
 v1 FN, 2020, v2 2021, v3 2022-2024                                           
------------------------------------------------------------------------------


----------------------
SHARK INTEGRAL PACKAGE
----------------------

Number of atoms                             ...      6
Number of basis functions                   ...    111
Number of shells                            ...     45
Maximum angular momentum                    ...      3
Integral batch strategy                     ... SHARK/LIBINT Hybrid
RI-J (if used) integral strategy            ... SPLIT-RIJ (Revised 2003 algorithm where possible)
Printlevel                                  ...      1
Contraction scheme used                     ... SEGMENTED contraction
Prescreening option                         ... SCHWARTZ
   Thresh                                   ... 2.500e-11
   Tcut                                     ... 2.500e-12
   Tpresel                                  ... 2.500e-12 
Coulomb Range Separation                    ... NOT USED
Exchange Range Separation                   ... NOT USED
Multipole approximations                    ... NOT USED
Finite Nucleus Model                        ... NOT USED
CABS basis                                  ... NOT available
Auxiliary Coulomb fitting basis             ... AVAILABLE
   # of basis functions in Aux-J            ...    180
   # of shells in Aux-J                     ...     60
   Maximum angular momentum in Aux-J        ...      4
Auxiliary J/K fitting basis                 ... NOT available
Auxiliary Correlation fitting basis         ... NOT available
Auxiliary 'external' fitting basis          ... NOT available

Checking pre-screening integrals            ... done (  0.0 sec) Dimension = 45
Check shell pair data                       ... done (  0.0 sec)
Shell pair information
Shell pair cut-off parameter TPreSel        ...   2.5e-12
Total number of shell pairs                 ...      1035
Shell pairs after pre-screening             ...      1022
Total number of primitive shell pairs       ...      3156
Primitive shell pairs kept                  ...      2667
          la=0 lb=0:    288 shell pairs
          la=1 lb=0:    288 shell pairs
          la=1 lb=1:     78 shell pairs
          la=2 lb=0:    143 shell pairs
          la=2 lb=1:     72 shell pairs
          la=2 lb=2:     21 shell pairs
          la=3 lb=0:     72 shell pairs
          la=3 lb=1:     36 shell pairs
          la=3 lb=2:     18 shell pairs
          la=3 lb=3:      6 shell pairs

Calculating one electron integrals          ... done (  0.0 sec)
Calculating RI/J V-Matrix + Cholesky decomp.... done (  0.0 sec)
[...]
Cavity Surface-area                               ...     295.5700
Calculating surface distance matrix               ...        done! (  0.0s)
Performing Cholesky decomposition & store         ...        done! (  0.0s)
Overall time for CPCM initialization              ...                 0.0s

----------------------------------------D-I-I-S--------------------------------------------
Iteration    Energy (Eh)           Delta-E    RMSDP     MaxDP     DIISErr   Damp  Time(sec)
-------------------------------------------------------------------------------------------
               ***  Starting incremental Fock matrix formation  ***
    1    -132.8174537105473689     0.00e+00  3.24e-03  8.41e-02  3.89e-03  0.700   0.2
                              *** Initializing SOSCF ***
---------------------------------------S-O-S-C-F--------------------------------------
Iteration    Energy (Eh)           Delta-E    RMSDP     MaxDP     MaxGrad    Time(sec)
--------------------------------------------------------------------------------------
    2    -132.8175940423213603    -1.40e-04  9.93e-03  2.96e-01  2.74e-03     0.2
               *** Restarting incremental Fock matrix formation ***
    3    -132.8179506042870344    -3.57e-04  1.07e-03  3.81e-02  4.64e-04     0.2
    4    -132.8179539599679799    -3.36e-06  5.21e-04  1.81e-02  3.03e-04     0.2
    5    -132.8179517069918347     2.25e-06  5.04e-04  1.85e-02  5.44e-04     0.2
    6    -132.8179546671276512    -2.96e-06  4.01e-05  1.40e-03  2.93e-05     0.2
    7    -132.8179546583860144     8.74e-09  3.07e-05  1.09e-03  3.47e-05     0.2
                 **** Energy Check signals convergence ****

               *****************************************************
               *                     SUCCESS                       *
               *           SCF CONVERGED AFTER   7 CYCLES          *
               *****************************************************

             **** ENERGY FILE WAS UPDATED (single_point_tzvpd.en.tmp) ****

----------------
TOTAL SCF ENERGY
----------------

Total Energy       :       -132.81795465838601 Eh           -3614.16029 eV

Components:
Nuclear Repulsion  :         58.34352003391919 Eh            1587.60789 eV
Electronic Energy  :       -191.14645426429354 Eh           -5201.35945 eV
One Electron Energy:       -293.47263182212259 Eh           -7985.79630 eV
Two Electron Energy:        102.32617755782906 Eh            2784.43685 eV
CPCM Dielectric    :         -0.01502042801166 Eh              -0.40873 eV

Virial components:
Potential Energy   :       -264.97790520449684 Eh           -7210.41537 eV
Kinetic Energy     :        132.15995054611082 Eh            3596.25508 eV
Virial Ratio       :          2.00497884653828

DFT components:
N(Alpha)           :       11.000001371008 electrons
N(Beta)            :       11.000001371008 electrons
N(Total)           :       22.000002742017 electrons
E(X)               :      -18.034841101358 Eh       
E(C)               :       -0.767956369843 Eh       
E(XC)              :      -18.802797471200 Eh       

CPCM Solvation Model Properties:
Surface-charge          :         -0.01851471554485
Corrected charge        :          0.00000000000000
Outlying charge corr.   :          0.00003551500770 Eh               0.00097 eV
Free-energy (cav+disp)  :  This term is not implemented in the current solvation scheme

---------------
SCF CONVERGENCE
---------------

  Last Energy change         ...   -8.7416e-09  Tolerance :   1.0000e-08
  Last MAX-Density change    ...    1.0899e-03  Tolerance :   1.0000e-07
  Last RMS-Density change    ...    3.0722e-05  Tolerance :   5.0000e-09
  Last DIIS Error            ...    2.7433e-03  Tolerance :   5.0000e-07
  Last Orbital Gradient      ...    3.4705e-05  Tolerance :   1.0000e-05
  Last Orbital Rotation      ...    4.5474e-05  Tolerance :   1.0000e-05


----------------
ORBITAL ENERGIES
----------------

  NO   OCC          E(Eh)            E(eV) 
   0   2.0000     -14.003552      -381.0560 
   1   2.0000      -9.950329      -270.7622 
   2   2.0000      -9.931780      -270.2575 
   3   2.0000      -0.836748       -22.7691 
   4   2.0000      -0.700387       -19.0585 
   5   2.0000      -0.459564       -12.5054 
   6   2.0000      -0.407344       -11.0844 
   7   2.0000      -0.407332       -11.0841 
   8   2.0000      -0.334847        -9.1116 
   9   2.0000      -0.303894        -8.2694 
  10   2.0000      -0.303887        -8.2692 
  11   0.0000      -0.017593        -0.4787 
  12   0.0000      -0.017585        -0.4785 
  13   0.0000      -0.000304        -0.0083 
  14   0.0000       0.046991         1.2787 
  15   0.0000       0.086719         2.3597 
  16   0.0000       0.086732         2.3601 
  17   0.0000       0.090435         2.4609 
  18   0.0000       0.115538         3.1439 
  19   0.0000       0.115554         3.1444 
  20   0.0000       0.137705         3.7471 
  21   0.0000       0.144282         3.9261 
*Only the first 10 virtual orbitals were printed.

                    ********************************
                    * MULLIKEN POPULATION ANALYSIS *
                    ********************************

-----------------------
MULLIKEN ATOMIC CHARGES
-----------------------
   0 C :   -0.844725
   1 C :    0.204965
   2 N :   -0.342004
   3 H :    0.327556
   4 H :    0.327214
   5 H :    0.326994
Sum of atomic charges:    0.0000000

--------------------------------
MULLIKEN REDUCED ORBITAL CHARGES
--------------------------------
  0 C s       :     3.300904  s :     3.300904
      pz      :     1.286944  p :     3.440581
      px      :     0.866665
      py      :     1.286972
      dz2     :     0.011694  d :     0.101130
      dxz     :     0.033820
      dyz     :     0.013355
      dx2y2   :     0.008446
      dxy     :     0.033815
      f0      :     0.000268  f :     0.002110
      f+1     :     0.000341
      f-1     :     0.000430
      f+2     :     0.000273
      f-2     :    -0.000148
      f+3     :     0.000678
      f-3     :     0.000268

  1 C s       :     3.269101  s :     3.269101
      pz      :     0.813584  p :     2.443032
      px      :     0.815881
      py      :     0.813567
      dz2     :    -0.009477  d :     0.066953
      dxz     :     0.052191
      dyz     :    -0.000457
      dx2y2   :    -0.027475
      dxy     :     0.052171
      f0      :     0.002330  f :     0.015950
      f+1     :     0.001317
      f-1     :     0.000388
      f+2     :     0.003880
      f-2     :     0.000029
      f+3     :     0.002180
      f-3     :     0.005825

  2 N s       :     4.043637  s :     4.043637
      pz      :     1.106396  p :     3.255628
      px      :     1.042818
      py      :     1.106415
      dz2     :     0.001672  d :     0.041186
      dxz     :     0.017247
      dyz     :     0.000029
      dx2y2   :     0.004984
      dxy     :     0.017254
      f0      :     0.000310  f :     0.001553
      f+1     :    -0.000037
      f-1     :     0.000052
      f+2     :     0.000516
      f-2     :     0.000000
      f+3     :    -0.000061
      f-3     :     0.000773

  3 H s       :     0.614441  s :     0.614441
      pz      :     0.025847  p :     0.058003
      px      :     0.007141
      py      :     0.025015

  4 H s       :     0.614774  s :     0.614774
      pz      :     0.030279  p :     0.058012
      px      :     0.007324
      py      :     0.020409

  5 H s       :     0.614939  s :     0.614939
      pz      :     0.019950  p :     0.058067
      px      :     0.007468
      py      :     0.030649



                     *******************************
                     * LOEWDIN POPULATION ANALYSIS *
                     *******************************

----------------------
LOEWDIN ATOMIC CHARGES
----------------------
   0 C :   -0.066573
   1 C :   -0.298725
   2 N :    0.066233
   3 H :    0.099688
   4 H :    0.099683
   5 H :    0.099695

-------------------------------
LOEWDIN REDUCED ORBITAL CHARGES
-------------------------------
  0 C s       :     2.745557  s :     2.745557
      pz      :     0.987642  p :     2.912772
      px      :     0.937489
      py      :     0.987640
      dz2     :     0.054394  d :     0.382537
      dxz     :     0.098384
      dyz     :     0.033622
      dx2y2   :     0.097251
      dxy     :     0.098886
      f0      :     0.002691  f :     0.025708
      f+1     :     0.004380
      f-1     :     0.002421
      f+2     :     0.003567
      f-2     :     0.002244
      f+3     :     0.005798
      f-3     :     0.004608

  1 C s       :     2.777478  s :     2.777478
      pz      :     0.774688  p :     2.677154
      px      :     1.127764
      py      :     0.774702
      dz2     :     0.073638  d :     0.783172
      dxz     :     0.244450
      dyz     :     0.000984
      dx2y2   :     0.219438
      dxy     :     0.244663
      f0      :     0.006618  f :     0.060923
      f+1     :     0.009608
      f-1     :     0.001103
      f+2     :     0.011022
      f-2     :     0.000030
      f+3     :     0.015997
      f-3     :     0.016544

  2 N s       :     3.272500  s :     3.272500
      pz      :     1.011196  p :     3.460368
      px      :     1.437934
      py      :     1.011238
      dz2     :     0.024414  d :     0.185531
      dxz     :     0.043937
      dyz     :     0.000004
      dx2y2   :     0.073230
      dxy     :     0.043945
      f0      :     0.001585  f :     0.015369
      f+1     :     0.002593
      f-1     :     0.000264
      f+2     :     0.002641
      f-2     :     0.000001
      f+3     :     0.004322
      f-3     :     0.003963

  3 H s       :     0.681431  s :     0.681431
      pz      :     0.082230  p :     0.218880
      px      :     0.057877
      py      :     0.078773

  4 H s       :     0.681454  s :     0.681454
      pz      :     0.100319  p :     0.218863
      px      :     0.058183
      py      :     0.060361

  5 H s       :     0.681431  s :     0.681431
      pz      :     0.058531  p :     0.218874
      px      :     0.058404
      py      :     0.101939



                      *****************************
                      * MAYER POPULATION ANALYSIS *
                      *****************************

  NA   - Mulliken gross atomic population
  ZA   - Total nuclear charge
  QA   - Mulliken gross atomic charge
  VA   - Mayer's total valence
  BVA  - Mayer's bonded valence
  FA   - Mayer's free valence

  ATOM       NA         ZA         QA         VA         BVA        FA
  0 C      6.8447     6.0000    -0.8447     3.6971     3.6971     0.0000
  1 C      5.7950     6.0000     0.2050     3.2218     3.2218     0.0000
  2 N      7.3420     7.0000    -0.3420     2.4276     2.4276     0.0000
  3 H      0.6724     1.0000     0.3276     0.9831     0.9831     0.0000
  4 H      0.6728     1.0000     0.3272     0.9834     0.9834     0.0000
  5 H      0.6730     1.0000     0.3270     0.9837     0.9837     0.0000

  Mayer bond orders larger than 0.100000
B(  0-C ,  1-C ) :   0.9418 B(  0-C ,  2-N ) :   0.1007 B(  0-C ,  3-H ) :   0.8845 
B(  0-C ,  4-H ) :   0.8849 B(  0-C ,  5-H ) :   0.8852 B(  1-C ,  2-N ) :   2.2663 


-------
TIMINGS
-------

Total SCF time: 0 days 0 hours 0 min 1 sec 

Total time                  ....       1.247 sec
Sum of individual times     ....       1.245 sec  ( 99.9%)

SCF preparation             ....       0.016 sec  (  1.3%)
Fock matrix formation       ....       1.208 sec  ( 96.9%)
  Startup                   ....       0.001 sec  (  0.1% of F)
  Split-RI-J                ....       0.142 sec  ( 11.8% of F)
  XC integration            ....       0.855 sec  ( 70.7% of F)
    Basis function eval.    ....       0.275 sec  ( 32.2% of XC)
    Density eval.           ....       0.144 sec  ( 16.9% of XC)
    XC-Functional eval.     ....       0.032 sec  (  3.8% of XC)
    XC-Potential eval.      ....       0.359 sec  ( 42.0% of XC)
  CPCM terms                ....       0.199 sec  ( 16.5% of F)
Diagonalization             ....       0.000 sec  (  0.0%)
Density matrix formation    ....       0.003 sec  (  0.2%)
Total Energy calculation    ....       0.001 sec  (  0.1%)
Population analysis         ....       0.002 sec  (  0.2%)
Orbital Transformation      ....       0.003 sec  (  0.2%)
Orbital Orthonormalization  ....       0.000 sec  (  0.0%)
DIIS solution               ....       0.005 sec  (  0.4%)
SOSCF solution              ....       0.006 sec  (  0.4%)
Finished LeanSCF after   1.3 sec

Maximum memory used throughout the entire LEANSCF-calculation: 11.4 MB

-------------------------   --------------------
FINAL SINGLE POINT ENERGY      -132.817954658386
-------------------------   --------------------


------------------------------------------------------------------------------
                              ORCA PROPERTY CALCULATIONS
------------------------------------------------------------------------------

GBWName                                 ... single_point_tzvpd.gbw
Number of atoms                         ...      6
Number of basis functions               ...    138
Max core memory                         ...   2000 MB

Electric properties:
Dipole moment                           ... YES
Quadrupole moment                       ...  NO
Static polarizability (Dipole/Dipole)   ...  NO
Static polarizability (Dipole/Quad.)    ...  NO
Static polarizability (Quad./Quad.)     ...  NO
Static polarizability (Velocity)        ...  NO

Atomic electric properties:
Dipole moment                           ...  NO
Quadrupole moment                       ...  NO
Static polarizability                   ...  NO

Choice of electric origin               ... Center of mass
Position of electric origin             ...     1.508300     0.012097     0.005136

General magnetic properties:
Magnetizability                         ...  NO

EPR properties:
g-Tensor (aka g-matrix)                 ...  NO
Zero-Field splitting spin-orbit         ...  NO
Zero-field splitting spin-spin          ...  NO
Hyperfine couplings                     ...  NO (   0 nuclei)
Quadrupole couplings                    ...  NO (   0 nuclei)
Contact density                         ...  NO (   0 nuclei)

NMR properties:
Chemical shifts                         ...  NO (   0 nuclei)
Spin-rotation constants                 ...  NO (   0 nuclei)
Spin-spin couplings                     ...  NO (   0 nuclei,    0 pairs)

Choice of magnetic origin               ... GIAO
Position of magnetic origin             ...     0.000000     0.000000     0.000000

Properties with geometric perturbations:
SCF Hessian                             ...  NO
IR spectrum                             ...  NO
VCD spectrum                            ...  NO
X-ray spectroscopy properties:
SCF XES/XAS/RIXS spectra                ...  NO


-------------
DIPOLE MOMENT
-------------

Method             : SCF
Type of density    : Electron Density
Multiplicity       :   1
Irrep              :   0
Energy             :  -132.8179546583860144 Eh
Relativity type    : 
Basis              : AO
                                X                 Y                 Z
Electronic contribution:      2.585401005       0.020636849       0.008634328
Nuclear contribution   :     -4.671589976      -0.037452160      -0.015909716
                        -----------------------------------------
Total Dipole Moment    :     -2.086188970      -0.016815311      -0.007275388
                        -----------------------------------------
Magnitude (a.u.)       :      2.086269423
Magnitude (Debye)      :      5.302875447



--------------------
Rotational spectrum 
--------------------
 
Rotational constants in cm-1:             5.222010             0.307263             0.307262 
Rotational constants in MHz :        156551.921032          9211.514500          9211.482240 

Dipole components along the rotational axes: 
x,y,z [a.u.] :    -2.086269    -0.000177     0.000091 
x,y,z [Debye]:    -5.302875    -0.000450     0.000231 

 

Dipole moment calculation done in   0.0 sec 

Maximum memory used throughout the entire PROP-calculation: 7.7 MB

--------------------------------
SUGGESTED CITATIONS FOR THIS RUN
--------------------------------

Below you find a list of papers that are relevant to this ORCA run
We neither can nor want to force you to cite these papers, but we appreciate if you do
You receive ORCA, which is the product of decades of hard work by many enthusiastic individuals, for free
The only thing we kindly ask in return is that you cite our papers,
We deeply appreciate it, if you show your appreciation for ORCA by not just citing the generic ORCA reference.

Please note that relegating all ORCA citations to the supporting information does *not* help us.
SI sections are not indexed - citations you put there will not count into any citation statistics
But we need these citations in order to attract the funding resources that allow us to do what we are doing

Therefore, if you are a happy ORCA user, please consider citing a few of the papers listed below in the main body of your paper

In addition to the list printed below, the program has created the file single_point_tzvpd.bibtex that contains the list in bibtex format
You can import this file easily into all common literature databanks and citation aid programs


List of essential papers. We consider these as the minimum necessary citations

  1. Neese,F.
     Software update: the ORCA program system, version 5.0
     WIRES Comput. Molec. Sci., 2022 12(1)e1606
     doi.org/10.1002/wcms.1606

List of papers to cite with high priority. The work reported in these papers was absolutely
necessary for this run to complete.
Our perspective: the developers of density functionals and basis sets usually get cited in chemistry papers
Good! But without the algorithms to do something with them, the functionals or basis sets would not do anything.
Hence, in our opinion, the algorithm design and method developments papers are equally worthy of getting cited

  1. Neese,F.
     An improvement of the resolution of the identity approximation for the formation of the Coulomb matrix
     J. Comp. Chem., 2003 24(14)1740-1747
     doi.org/10.1002/jcc.10318
  2. Garcia-Rates,M.; Neese,F.
     Effect of the Solute Cavity on the Solvation Energy and its Derivatives within the Framework of the Gaussian Charge Scheme
     J. Comput. Chem., 2020 41 922-939
     doi.org/10.1002/jcc.26139
  3. Neese,F.
     The SHARK Integral Generation and Digestion System
     J. Comp. Chem., 2022  1-16
     doi.org/10.1002/jcc.26942

List of suggested additional citations. These are papers that are important in the 'surrounding' of 
of this run, or papers that preceded the highly important papers. If you like your results we are grateful for a citation.

  1. Neese,F.
     The ORCA program system
     WIRES Comput. Molec. Sci., 2012 2(1)73-78
     doi.org/10.1002/wcms.81
  2. Neese,F.
     Software update: the ORCA program system, version 4.0
     WIRES Comput. Molec. Sci., 2018 8(1)1-6
     doi.org/10.1002/wcms.1327
  3. Neese,F.; Wennmohs,F.; Becker,U.; Riplinger,C.
     The ORCA quantum chemistry program package
     J. Chem. Phys., 2020 152 Art. No. L224108
     doi.org/10.1063/5.0004608

List of optional additional citations

  1. Neese,F.
     Approximate second-order SCF convergence for spin unrestricted wavefunctions
     Chem. Phys. Lett., 2000 325(1-3)93-98
     doi.org/10.1016/s0009-2614(00)00662-x

Timings for individual modules:

Sum of individual times          ...        1.544 sec (=   0.026 min)
Startup calculation              ...        0.143 sec (=   0.002 min)   9.3 %
SCF iterations                   ...        1.350 sec (=   0.023 min)  87.5 %
Property calculations            ...        0.050 sec (=   0.001 min)   3.3 %



                             ****ORCA TERMINATED NORMALLY****
TOTAL RUN TIME: 0 days 0 hours 0 minutes 6 seconds 784 msec
