
                                 *****************
                                 * O   R   C   A *
                                 *****************

                                            #,                                       
                                            ###                                      
                                            ####                                     
                                            #####                                    
                                            ######                                   
                                           ########,                                 
                                     ,,################,,,,,                         
                               ,,#################################,,                 
                          ,,##########################################,,             
                       ,#########################################, ''#####,          
                    ,#############################################,,   '####,        
                  ,##################################################,,,,####,       
                ,###########''''           ''''###############################       
              ,#####''   ,,,,##########,,,,          '''####'''          '####       
            ,##' ,,,,###########################,,,                        '##       
           ' ,,###''''                  '''############,,,                           
         ,,##''                                '''############,,,,        ,,,,,,###''
      ,#''                                            '''#######################'''  
     '                                                          ''''####''''         
             ,#######,   #######,   ,#######,      ##                                
            ,#'     '#,  ##    ##  ,#'     '#,    #''#        ,####,   ,####,        
            ##       ##  ##   ,#'  ##            #'  '#       #'       #'  '#        
            ##       ##  #######   ##           ,######,      #####,   #    #        
            '#,     ,#'  ##    ##  '#,     ,#' ,#      #,     #,   #   #,  ,#        
             '#######'   ##     ##  '#######'  #'      '#     '####' # '####'        



                #########################################################
                #                        -***-                          #
                #          Department of theory and spectroscopy        #
                #                                                       #
                #                      Frank Neese                      #
                #                                                       #
                #     Directorship, Architecture, Infrastructure        #
                #                    SHARK, DRIVERS                     #
                #        Core code/Algorithms in most modules           #
                #                                                       #
                #        Max Planck Institute fuer Kohlenforschung      #
                #                Kaiser Wilhelm Platz 1                 #
                #                 D-45470 Muelheim/Ruhr                 #
                #                      Germany                          #
                #                                                       #
                #                  All rights reserved                  #
                #                        -***-                          #
                #########################################################


                         Program Version 6.0.0  -   RELEASE  -


 With contributions from (in alphabetic order):
   Daniel Aravena         : Magnetic Suceptibility
   Michael Atanasov       : Ab Initio Ligand Field Theory (pilot matlab implementation)
   Alexander A. Auer      : GIAO ZORA, VPT2 properties, NMR spectrum
   Ute Becker             : All parallelization in ORCA, NUMFREQ, NUMCALC
   Giovanni Bistoni       : ED, misc. LED, open-shell LED, HFLD
   Martin Brehm           : Molecular dynamics
   Dmytro Bykov           : pre 5.0 version of the SCF Hessian
   Marcos Casanova-Páez   : Triplet and SCS-CIS(D). UHF-(DLPNO)-IP/EA/STEOM-CCSD. UHF-CVS-IP/STEOM-CCSD
   Vijay G. Chilkuri      : MRCI spin determinant printing, contributions to CSF-ICE
   Pauline Colinet        : FMM embedding
   Dipayan Datta          : RHF DLPNO-CCSD density
   Achintya Kumar Dutta   : EOM-CC, STEOM-CC
   Nicolas Foglia         : Exact transition moments, OPA infrastructure, MCD improvements
   Dmitry Ganyushin       : Spin-Orbit,Spin-Spin,Magnetic field MRCI
   Miquel Garcia          : C-PCM and meta-GGA Hessian, CCSD/C-PCM, Gaussian charge scheme
   Tiago L. C. Gouveia    : GS-ROHF, GS-ROCIS
   Yang Guo               : DLPNO-NEVPT2, F12-NEVPT2, CIM, IAO-localization
   Andreas Hansen         : Spin unrestricted coupled pair/coupled cluster methods
   Ingolf Harden          : AUTO-CI MPn and infrastructure 
   Benjamin Helmich-Paris : MC-RPA, TRAH-(SCF,CASSCF), AVAS, COSX integrals, SCF dyn. polar.
   Lee Huntington         : MR-EOM, pCC
   Robert Izsak           : Overlap fitted RIJCOSX, COSX-SCS-MP3, EOM
   Riya Kayal             : Wick's Theorem for AUTO-CI, AUTO-CI UHF-CCSDT
   Emily Kempfer          : AUTO-CI, RHF CISDT and CCSDT
   Christian Kollmar      : KDIIS, OOCD, Brueckner-CCSD(T), CCSD density, CASPT2, CASPT2-K, improved NEVPT2
   Axel Koslowski         : Symmetry handling
   Simone Kossmann        : Meta GGA functionals, TD-DFT gradient, OOMP2, (MP2 Hessian; deprecated post 5.0)
   Lucas Lang             : DCDCAS
   Marvin Lechner         : AUTO-CI (C++ implementation), FIC-MRCC
   Spencer Leger          : CASSCF response
   Dagmar Lenk            : GEPOL surface, SMD, ORCA-2-JSON
   Dimitrios Liakos       : Extrapolation schemes; Compound Job, initial MDCI parallelization
   Dimitrios Manganas     : Further ROCIS development; embedding schemes. LFT, Crystal Embedding
   Dimitrios Pantazis     : SARC Basis sets
   Anastasios Papadopoulos: AUTO-CI, single reference methods and gradients
   Taras Petrenko         : pre 6.0 DFT Hessian and TD-DFT gradient, (ASA, deprecated), ECA, 1-Electron XAS/XES, NRVS
   Peter Pinski           : DLPNO-MP2, DLPNO-MP2 Gradient
   Christoph Reimann      : Effective Core Potentials
   Marius Retegan         : Local ZFS, SOC
   Christoph Riplinger    : Optimizer, TS searches, QM/MM, DLPNO-CCSD(T), (RO)-DLPNO pert. Triples
   Michael Roemelt        : Original ROCIS implementation
   Masaaki Saitow         : Open-shell DLPNO-CCSD energy and density
   Barbara Sandhoefer     : DKH picture change effects
   Kantharuban Sivalingam : CASSCF convergence/infrastructure, NEVPT2 and variants, FIC-MRCI
   Bernardo de Souza      : ESD, SOC TD-DFT
   Georgi Stoychev        : AutoAux, RI-MP2 NMR, DLPNO-MP2 response, X2C
   Van Anh Tran           : RI-MP2 g-tensors
   Willem Van den Heuvel  : Paramagnetic NMR
   Zikuan Wang            : NOTCH, Electric field optimization 
   Frank Wennmohs         : Technical directorship and infrastructure
   Hang Xu                : AUTO-CI-Response properties 


 We gratefully acknowledge several colleagues who have allowed us to
 interface, adapt or use parts of their codes:
   Stefan Grimme, W. Hujo, H. Kruse, P. Pracht,  : VdW corrections, initial TS optimization,
                  C. Bannwarth, S. Ehlert,         DFT functionals, gCP, sTDA/sTD-DF
                  L. Wittmann, M. Mueller
   Ed Valeev, F. Pavosevic, A. Kumar             : LibInt (2-el integral package), F12 methods
   Garnet Chan, S. Sharma, J. Yang, R. Olivares  : DMRG
   Ulf Ekstrom                                   : XCFun DFT Library
   Mihaly Kallay                                 : mrcc  (arbitrary order and MRCC methods)
   Frank Weinhold                                : gennbo (NPA and NBO analysis)
   Simon Mueller                                 : openCOSMO-RS
   Christopher J. Cramer and Donald G. Truhlar   : smd solvation model
   Lars Goerigk                                  : TD-DFT with DH, B97 family of functionals
   V. Asgeirsson, H. Jonsson                     : NEB implementation
   FAccTs GmbH                                   : IRC, NEB, NEB-TS, DLPNO-Multilevel, CI-OPT
                                                   MM, QMMM, 2- and 3-layer-ONIOM, Crystal-QMMM,
                                                   LR-CPCM, SF, NACMEs, symmetry and pop. for TD-DFT,
                                                   nearIR, NL-DFT gradient (VV10), updates on ESD,
                                                   ML-optimized integration grids, MBIS, APM,
                                                   GOAT, DOCKER, SOLVATOR, interface openCOSMO-RS
   S Lehtola, MJT Oliveira, MAL Marques          : LibXC Library
   Liviu Ungur et al                             : ANISO software


 Your calculation uses the libint2 library for the computation of 2-el integrals
 For citations please refer to: http://libint.valeyev.net

 Your ORCA version has been built with support for libXC version: 6.2.2
 For citations please refer to: https://libxc.gitlab.io

 This ORCA versions uses:
   CBLAS   interface :  Fast vector & matrix operations
   LAPACKE interface :  Fast linear algebra routines
   SCALAPACK package :  Parallel linear algebra routines
   Shared memory     :  Shared parallel matrices


NOTE: MaxCore=2000 MB was set to SCF,MP2,MDCI,CIPSI,MRCI and CIS
      => If you want to overwrite this, your respective input block should be placed after the MaxCore statement


***************************************
The coordinates will be read from file: chloroform_c000.xyz
***************************************


Warning: RI is on but no J-basis has been assigned. Assigning Def2/J (nothing to worry about!)
================================================================================

----- Orbital basis set information -----
Your calculation utilizes the basis: def2-TZVP
   F. Weigend and R. Ahlrichs, Phys. Chem. Chem. Phys. 7, 3297 (2005).

----- AuxJ basis set information -----
Your calculation utilizes the auxiliary basis: def2/J
   F. Weigend, Phys. Chem. Chem. Phys. 8, 1057 (2006).

================================================================================
                                        WARNINGS
                       Please study these warnings very carefully!
================================================================================


WARNING: Geometry Optimization
  ===> : Switching off AutoStart
         For restart on a previous wavefunction, please use MOREAD



***************************************
The coordinates will be read from file: geo_opt_tzvp.xyz
***************************************


Warning: RI is on but no J-basis has been assigned. Assigning Def2/J (nothing to worry about!)
================================================================================

----- Orbital basis set information -----
Your calculation utilizes the basis: def2-TZVPD
   F. Weigend and R. Ahlrichs, Phys. Chem. Chem. Phys. 7, 3297 (2005).
   D. Rappoport and F. Furche, J. Chem. Phys. 133, 134105 (2010)
   D. Rappoport, J. Chem. Phys. 155, 124102 (2021).

----- AuxJ basis set information -----
Your calculation utilizes the auxiliary basis: def2/J
   F. Weigend, Phys. Chem. Chem. Phys. 8, 1057 (2006).

================================================================================
                                        WARNINGS
                       Please study these warnings very carefully!
================================================================================


================================================================================
                                       INPUT FILE
================================================================================
NAME = input.dat
|  1> %MaxCore 2000
|  2> 
|  3> %base "geo_opt_tzvp"
|  4> 
|  5> %cpcm
|  6> radius[1]  1.3
|  7> radius[2]  1.601
|  8> radius[5]  2.048
|  9> radius[6]  2.0
| 10> radius[7]  1.83
| 11> radius[8]  1.72
| 12> radius[9]  1.72
| 13> radius[10]  1.771
| 14> radius[13]  2.152
| 15> radius[14]  2.2
| 16> radius[15]  2.106
| 17> radius[16]  2.16
| 18> radius[17]  2.05
| 19> radius[18]  2.184
| 20> radius[22]  2.261
| 21> radius[26]  2.195
| 22> radius[27]  2.153
| 23> radius[31]  2.172
| 24> radius[32]  2.7
| 25> radius[33]  2.148
| 26> radius[34]  2.2
| 27> radius[35]  2.16
| 28> radius[36]  2.354
| 29> radius[49]  2.245
| 30> radius[50]  2.55
| 31> radius[51]  2.402
| 32> radius[53]  2.32
| 33> radius[54]  2.524
| 34> radius[80]  1.978
| 35> radius[82]  2.36
| 36> radius[86]  2.573
| 37> cut_area 0.03571064825863687
| 38> end
| 39> 
| 40> ! OPT CPCM BP86 def2-TZVP
| 41> 
| 42> * xyzfile 0 1 chloroform_c000.xyz
| 43> 
| 44> $new_job
| 45> 
| 46> ! CPCM BP86 def2-TZVPD SP
| 47> 
| 48> %base "single_point_tzvpd"
| 49> 
| 50> * xyzfile 0 1 geo_opt_tzvp.xyz
| 51> 
| 52>                          ****END OF INPUT****
================================================================================


                 $$$$$$$$$$$$$$$$$$$$$$$$$$$$$$$$$$$$$$$$$$$$$$ 
                 $ THERE ARE  2 JOBS TO BE PROCESSED THIS RUN $
                 $$$$$$$$$$$$$$$$$$$$$$$$$$$$$$$$$$$$$$$$$$$$$$ 




                 $$$$$$$$$$$$$$$$  JOB NUMBER  1 $$$$$$$$$$$$$$


                       *****************************
                       * Geometry Optimization Run *
                       *****************************

Geometry optimization settings:
Update method            Update   .... BFGS
Choice of coordinates    CoordSys .... (2022) Redundant Internals
Initial Hessian          InHess   .... Almloef's Model
Max. no of cycles        MaxIter  .... 50

Convergence Tolerances:
Energy Change            TolE     ....  5.0000e-06 Eh
Max. Gradient            TolMAXG  ....  3.0000e-04 Eh/bohr
RMS Gradient             TolRMSG  ....  1.0000e-04 Eh/bohr
Max. Displacement        TolMAXD  ....  4.0000e-03 bohr
RMS Displacement         TolRMSD  ....  2.0000e-03 bohr
Strict Convergence                .... False

------------------------------------------------------------------------------
                        ORCA OPTIMIZATION COORDINATE SETUP
------------------------------------------------------------------------------

The optimization will be done in redundant internal coordinates (2022)
Making redundant internal coordinates   ...  (2022 redundants) done
Evaluating the initial hessian          ...  (Almloef) done
Evaluating the coordinates              ...  done
Calculating the B-matrix                .... done
Calculating the G-matrix                .... done
Diagonalizing the G-matrix              .... done
The first mode is                       ....    1
The number of degrees of freedom        ....    9

    -----------------------------------------------------------------
                    Redundant Internal Coordinates


    -----------------------------------------------------------------
         Definition                    Initial Value    Approx d2E/dq
    -----------------------------------------------------------------
      1. B(C   1,Cl  0)                  1.7908         0.321554   
      2. B(Cl  2,C   1)                  1.7908         0.321575   
      3. B(Cl  3,C   1)                  1.7909         0.321496   
      4. B(H   4,C   1)                  1.0901         0.360027   
      5. A(Cl  0,C   1,Cl  3)          110.8985         0.375763   
      6. A(Cl  2,C   1,Cl  3)          110.8928         0.375767   
      7. A(Cl  0,C   1,H   4)          108.0281         0.329577   
      8. A(Cl  2,C   1,H   4)          108.0025         0.329580   
      9. A(Cl  3,C   1,H   4)          107.9972         0.329567   
     10. A(Cl  0,C   1,Cl  2)          110.8870         0.375779   
    -----------------------------------------------------------------

Number of atoms                         .... 5
Number of degrees of freedom            .... 10


         *************************************************************
         *                GEOMETRY OPTIMIZATION CYCLE   1            *
         *************************************************************
---------------------------------
CARTESIAN COORDINATES (ANGSTROEM)
---------------------------------
  Cl    -0.995186   -1.398643   -0.383766
  C      0.002909    0.002405    0.114130
  Cl    -0.722891    1.537615   -0.454476
  Cl     1.683966   -0.167678   -0.479443
  H      0.031203    0.026301    1.203555

----------------------------
CARTESIAN COORDINATES (A.U.)
----------------------------
  NO LB      ZA    FRAG     MASS         X           Y           Z
   0 Cl   17.0000    0    35.453   -1.880630   -2.643052   -0.725212
   1 C     6.0000    0    12.011    0.005498    0.004545    0.215674
   2 Cl   17.0000    0    35.453   -1.366067    2.905671   -0.858836
   3 Cl   17.0000    0    35.453    3.182234   -0.316866   -0.906016
   4 H     1.0000    0     1.008    0.058965    0.049702    2.274390

--------------------------------
INTERNAL COORDINATES (ANGSTROEM)
--------------------------------
 Cl     0   0   0     0.000000000000     0.00000000     0.00000000
 C      1   0   0     1.790818493613     0.00000000     0.00000000
 Cl     2   1   0     1.790801256069   110.88698606     0.00000000
 Cl     2   1   3     1.790867888454   110.89850292   236.33799800
 H      2   1   3     1.090054917879   108.02809507   118.16890387

---------------------------
INTERNAL COORDINATES (A.U.)
---------------------------
 Cl     0   0   0     0.000000000000     0.00000000     0.00000000
 C      1   0   0     3.384156508489     0.00000000     0.00000000
 Cl     2   1   0     3.384123934252   110.88698606     0.00000000
 Cl     2   1   3     3.384249851211   110.89850292   236.33799800
 H      2   1   3     2.059905265726   108.02809507   118.16890387

---------------------
BASIS SET INFORMATION
---------------------
There are 3 groups of distinct atoms

 Group   1 Type Cl  : 14s9p3d1f contracted to 5s5p2d1f pattern {73211/51111/21/1}
 Group   2 Type C   : 11s6p2d1f contracted to 5s3p2d1f pattern {62111/411/11/1}
 Group   3 Type H   : 5s1p contracted to 3s1p pattern {311/1}

Atom   0Cl   basis set group =>   1
Atom   1C    basis set group =>   2
Atom   2Cl   basis set group =>   1
Atom   3Cl   basis set group =>   1
Atom   4H    basis set group =>   3
---------------------------------
AUXILIARY/J BASIS SET INFORMATION
---------------------------------
There are 3 groups of distinct atoms

 Group   1 Type Cl  : 14s5p5d2f1g contracted to 8s4p3d1f1g pattern {71111111/2111/311/2/1}
 Group   2 Type C   : 12s5p4d2f1g contracted to 6s4p3d1f1g pattern {711111/2111/211/2/1}
 Group   3 Type H   : 5s2p1d contracted to 3s1p1d pattern {311/2/1}

Atom   0Cl   basis set group =>   1
Atom   1C    basis set group =>   2
Atom   2Cl   basis set group =>   1
Atom   3Cl   basis set group =>   1
Atom   4H    basis set group =>   3
------------------------------------------------------------------------------
                             ORCA STARTUP CALCULATIONS
                           -- RI-GTO INTEGRALS CHOSEN --
------------------------------------------------------------------------------
------------------------------------------------------------------------------
                   ___                                                        
                  /   \      - P O W E R E D   B Y -                         
                 /     \                                                     
                 |  |  |   _    _      __       _____    __    __             
                 |  |  |  | |  | |    /  \     |  _  \  |  |  /  |          
                  \  \/   | |  | |   /    \    | | | |  |  | /  /          
                 / \  \   | |__| |  /  /\  \   | |_| |  |  |/  /          
                |  |  |   |  __  | /  /__\  \  |    /   |      \           
                |  |  |   | |  | | |   __   |  |    \   |  |\   \          
                \     /   | |  | | |  |  |  |  | |\  \  |  | \   \       
                 \___/    |_|  |_| |__|  |__|  |_| \__\ |__|  \__/        
                                                                              
                      - O R C A' S   B I G   F R I E N D -                    
                                      &                                       
                       - I N T E G R A L  F E E D E R -                       
                                                                              
 v1 FN, 2020, v2 2021, v3 2022-2024                                           
------------------------------------------------------------------------------


----------------------
SHARK INTEGRAL PACKAGE
----------------------

Number of atoms                             ...      5
Number of basis functions                   ...    148
Number of shells                            ...     54
Maximum angular momentum                    ...      3
Integral batch strategy                     ... SHARK/LIBINT Hybrid
RI-J (if used) integral strategy            ... SPLIT-RIJ (Revised 2003 algorithm where possible)
Printlevel                                  ...      1
Contraction scheme used                     ... SEGMENTED contraction
Prescreening option                         ... SCHWARTZ
   Thresh                                   ... 2.500e-11
   Tcut                                     ... 2.500e-12
   Tpresel                                  ... 2.500e-12 
Coulomb Range Separation                    ... NOT USED
Exchange Range Separation                   ... NOT USED
Multipole approximations                    ... NOT USED
Finite Nucleus Model                        ... NOT USED
CABS basis                                  ... NOT available
Auxiliary Coulomb fitting basis             ... AVAILABLE
   # of basis functions in Aux-J            ...    213
   # of shells in Aux-J                     ...     71
   Maximum angular momentum in Aux-J        ...      4
Auxiliary J/K fitting basis                 ... NOT available
Auxiliary Correlation fitting basis         ... NOT available
Auxiliary 'external' fitting basis          ... NOT available

Checking pre-screening integrals            ... done (  0.0 sec) Dimension = 54
Check shell pair data                       ... done (  0.0 sec)
Shell pair information
Shell pair cut-off parameter TPreSel        ...   2.5e-12
Total number of shell pairs                 ...      1485
Shell pairs after pre-screening             ...      1386
Total number of primitive shell pairs       ...      5911
Primitive shell pairs kept                  ...      4128
          la=0 lb=0:    240 shell pairs
          la=1 lb=0:    392 shell pairs
          la=1 lb=1:    178 shell pairs
          la=2 lb=0:    178 shell pairs
          la=2 lb=1:    152 shell pairs
          la=2 lb=2:     36 shell pairs
          la=3 lb=0:     92 shell pairs
          la=3 lb=1:     76 shell pairs
          la=3 lb=2:     32 shell pairs
          la=3 lb=3:     10 shell pairs

Calculating one electron integrals          ... done (  0.0 sec)
Calculating RI/J V-Matrix + Cholesky decomp.... done (  0.0 sec)
Calculating Nuclear repulsion               ... done (  0.0 sec) ENN=    260.268467376662 Eh

Diagonalization of the overlap matrix:
Smallest eigenvalue                        ... 2.941e-03
Time for diagonalization                   ...    0.001 sec
Threshold for overlap eigenvalues          ... 1.000e-07
Number of eigenvalues below threshold      ... 0
Time for construction of square roots      ...    0.000 sec
Total time needed                          ...    0.002 sec

-------------------
DFT GRID GENERATION
-------------------

General Integration Accuracy     IntAcc      ... 4.388
Radial Grid Type                 RadialGrid  ... OptM3 with GC (2021)
Angular Grid (max. ang.)         AngularGrid ... 4 (Lebedev-302)
Angular grid pruning method      GridPruning ... 4 (adaptive)
Weight generation scheme         WeightScheme... mBecke (2022)
Basis function cutoff            BFCut       ... 1.0000e-11
Integration weight cutoff        WCut        ... 1.0000e-14
Partially contracted basis set               ... off
Rotationally invariant grid construction     ... off
Angular grids for H and He will be reduced by one unit

Total number of grid points                  ...    31410
Total number of batches                      ...      494
Average number of points per batch           ...       63
Average number of grid points per atom       ...     6282
Initializing property integral containers    ... done (  0.0 sec)

SHARK setup successfully completed in   0.1 seconds

Maximum memory used throughout the entire STARTUP-calculation: 18.1 MB
-------------------------------------------------------------------------------
                                 ORCA GUESS
                   Start orbitals & Density for SCF / CASSCF
-------------------------------------------------------------------------------

------------
SCF SETTINGS
------------
Hamiltonian:
 Density Functional     Method          .... DFT(GTOs)
 Exchange Functional    Exchange        .... B88
   X-Alpha parameter    XAlpha          ....  0.666667
   Becke's b parameter  XBeta           ....  0.004200
 Correlation Functional Correlation     .... P86
 LDA part of GGA corr.  LDAOpt          .... PW91-LDA
 Gradients option       PostSCFGGA      .... off
   NL short-range parameter             ....  4.400000
 RI-approximation to the Coulomb term is turned on
   Number of AuxJ basis functions       .... 213


General Settings:
 Integral files         IntName         .... geo_opt_tzvp
 Hartree-Fock type      HFTyp           .... RHF
 Total Charge           Charge          ....    0
 Multiplicity           Mult            ....    1
 Number of Electrons    NEL             ....   58
 Basis Dimension        Dim             ....  148
 Nuclear Repulsion      ENuc            ....    260.2684673767 Eh

Convergence Acceleration:
 AO-DIIS                CNVDIIS         .... on
   Start iteration      DIISMaxIt       ....    12
   Startup error        DIISStart       ....  0.200000
   # of expansion vecs  DIISMaxEq       ....     5
   Bias factor          DIISBfac        ....   1.050
   Max. coefficient     DIISMaxC        ....  10.000
 MO-DIIS                CNVKDIIS        .... off
 Trust-Rad. Augm. Hess. CNVTRAH         .... auto
   Auto Start mean grad. ratio tolernc. ....  1.125000
   Auto Start start iteration           ....    50
   Auto Start num. interpolation iter.  ....    10
   Max. Number of Micro iterations      ....    24
   Max. Number of Macro iterations      .... Maxiter - #DIIS iter
   Number of Davidson start vectors     ....     2
   Converg. threshold    (grad. norm)   ....   1.000e-05
   Grad. Scal. Fac. for Micro threshold ....   0.100
   Minimum threshold for Micro iter.    ....   1.000e-02
   NR start threshold (gradient norm)   ....   1.000e-04
   Initial trust radius                 ....   0.400
   Minimum AH scaling param. (alpha)    ....   1.000
   Maximum AH scaling param. (alpha)    .... 1000.000
   Quad. conv. algorithm                .... NR
   White noise on init. David. guess    .... on
   Maximum white noise                  ....   0.010
   Pseudo random numbers                .... off
   Inactive MOs                         .... canonical
   Orbital update algorithm             .... Taylor
   Preconditioner                       .... Diag
   Full preconditioner red. dimension   ....   250
 SOSCF                  CNVSOSCF        .... on
   Start iteration      SOSCFMaxIt      ....   150
   Startup grad/error   SOSCFStart      ....  0.003300
   Hessian update       SOSCFHessUp     .... L-BFGS
 Level Shifting         CNVShift        .... on
   Level shift para.    LevelShift      ....    0.2500
   Turn off err/grad.   ShiftErr        ....    0.0010
 Zerner damping         CNVZerner       .... off
 Static damping         CNVDamp         .... on
   Fraction old density DampFac         ....    0.7000
   Max. Damping (<1)    DampMax         ....    0.9800
   Min. Damping (>=0)   DampMin         ....    0.0000
   Turn off err/grad.   DampErr         ....    0.1000

SCF Procedure:
 Maximum # iterations   MaxIter         ....   125
 SCF integral mode      SCFMode         .... Direct
   Integral package                     .... SHARK and LIBINT hybrid scheme
 Reset frequency        DirectResetFreq ....    20
 Integral Threshold     Thresh          ....  2.500e-11 Eh
 Primitive CutOff       TCut            ....  2.500e-12 Eh

Convergence Tolerance:
 Convergence Check Mode ConvCheckMode   .... Total+1el-Energy
 Convergence forced     ConvForced      .... 0
 Energy Change          TolE            ....  1.000e-08 Eh
 1-El. energy change                    ....  1.000e-05 Eh
 Orbital Gradient       TolG            ....  1.000e-05
 Orbital Rotation angle TolX            ....  1.000e-05
 DIIS Error             TolErr          ....  5.000e-07

------------------------------
INITIAL GUESS: MODEL POTENTIAL
------------------------------
Loading Hartree-Fock densities                     ... done
Calculating cut-offs                               ... done
Initializing the effective Hamiltonian             ... done
Setting up the integral package (SHARK)            ... done
Starting the Coulomb interaction                   ... done (   0.0 sec)
Making the grid                                    ... done (   0.0 sec)
Mapping shells                                     ... done
Starting the XC term evaluation                    ... done (   0.0 sec)
  promolecular density results
     # of electrons  =     57.998659039
     EX              =    -87.999547265
     EC              =     -2.531241558
     EX+EC           =    -90.530788823
Transforming the Hamiltonian                       ... done (   0.0 sec)
Diagonalizing the Hamiltonian                      ... done (   0.0 sec)
Back transforming the eigenvectors                 ... done (   0.0 sec)
Now organizing SCF variables                       ... done
                      ------------------
                      INITIAL GUESS DONE (   0.1 sec)
                      ------------------
             **** ENERGY FILE WAS UPDATED (geo_opt_tzvp.en.tmp) ****
Finished Guess after   0.1 sec
Maximum memory used throughout the entire GUESS-calculation: 12.3 MB

-------------------------------------------------------------------------------------------
                                      ORCA LEAN-SCF
                              memory conserving SCF solver
-------------------------------------------------------------------------------------------

--------------------
CPCM SOLVATION MODEL
--------------------
CPCM parameters:
  Epsilon                                         ...     INFINITY
  Refrac                                          ...       1.3300
  Rsolv                                           ...       1.3000
  Surface type                                    ... GAUSSIAN VDW
  Discretization scheme                           ... Constant charge density
    Threshold for H atoms                         ...       5.0000 (charges/Ang^2)
    Threshold for non-H atoms                     ...       5.0000 (charges/Ang^2)
  Epsilon function type                           ...         CPCM
Solvent:                                          ... CONDUCTOR
Radii:
  Scheme                                          ... Element-dependent radii
  Radius for Cl used is    3.8739 Bohr (=   2.0500 Ang.)
  Radius for C  used is    3.7795 Bohr (=   2.0000 Ang.)
  Radius for H  used is    2.4566 Bohr (=   1.3000 Ang.)
Calculating surface                               ...        done! (  0.0s)
Cavity surface points                             ...          732
Cavity Volume                                     ...     689.9348
Cavity Surface-area                               ...     429.3668
Calculating surface distance matrix               ...        done! (  0.0s)
Performing Cholesky decomposition & store         ...        done! (  0.0s)
Overall time for CPCM initialization              ...                 0.0s

----------------------------------------D-I-I-S--------------------------------------------
Iteration    Energy (Eh)           Delta-E    RMSDP     MaxDP     DIISErr   Damp  Time(sec)
-------------------------------------------------------------------------------------------
               ***  Starting incremental Fock matrix formation  ***
    1    -1419.4844090671699632     0.00e+00  7.57e-04  2.28e-02  4.19e-02  0.700   0.2
    2    -1419.4895272060150546    -5.12e-03  5.36e-04  1.37e-02  2.75e-02  0.700   0.2
                               ***Turning on AO-DIIS***
    3    -1419.4915486551465165    -2.02e-03  2.82e-04  5.38e-03  1.63e-02  0.700   0.2
    4    -1419.4928970100590959    -1.35e-03  5.47e-04  9.55e-03  1.01e-02  0.000   0.2
                              *** Initializing SOSCF ***
---------------------------------------S-O-S-C-F--------------------------------------
Iteration    Energy (Eh)           Delta-E    RMSDP     MaxDP     MaxGrad    Time(sec)
--------------------------------------------------------------------------------------
    5    -1419.4957838852926670    -2.89e-03  5.35e-05  1.37e-03  3.21e-03     0.2
               *** Restarting incremental Fock matrix formation ***
    6    -1419.4958134269825223    -2.95e-05  3.35e-05  6.65e-04  2.99e-04     0.2
    7    -1419.4958098560614417     3.57e-06  2.03e-05  4.46e-04  6.35e-04     0.2
    8    -1419.4958149335645885    -5.08e-06  4.85e-06  1.24e-04  3.37e-05     0.2
    9    -1419.4958149494557347    -1.59e-08  2.46e-06  7.58e-05  3.05e-05     0.2
   10    -1419.4958149741694342    -2.47e-08  5.67e-07  1.17e-05  4.61e-06     0.2
   11    -1419.4958149738877182     2.82e-10  1.95e-07  3.69e-06  2.31e-06     0.2
                 **** Energy Check signals convergence ****

               *****************************************************
               *                     SUCCESS                       *
               *           SCF CONVERGED AFTER  11 CYCLES          *
               *****************************************************

             **** ENERGY FILE WAS UPDATED (geo_opt_tzvp.en.tmp) ****

----------------
TOTAL SCF ENERGY
----------------

Total Energy       :      -1419.49581497388772 Eh          -38626.44486 eV

Components:
Nuclear Repulsion  :        260.26846737666233 Eh            7082.26505 eV
Electronic Energy  :      -1679.75937134250671 Eh          -45708.57627 eV
One Electron Energy:      -2476.60672973407145 Eh          -67391.89525 eV
Two Electron Energy:        796.84735839156474 Eh           21683.31898 eV
CPCM Dielectric    :         -0.00491100804337 Eh              -0.13364 eV

Virial components:
Potential Energy   :      -2836.48723274148597 Eh          -77184.74160 eV
Kinetic Energy     :       1416.99141776759848 Eh           38558.29674 eV
Virial Ratio       :          2.00176740463978

DFT components:
N(Alpha)           :       28.999998293698 electrons
N(Beta)            :       28.999998293698 electrons
N(Total)           :       57.999996587396 electrons
E(X)               :      -88.128245166849 Eh       
E(C)               :       -2.528470317525 Eh       
E(XC)              :      -90.656715484374 Eh       

CPCM Solvation Model Properties:
Surface-charge          :         -0.01976491523525
Corrected charge        :         -0.00000000000000
Outlying charge corr.   :          0.00003414082846 Eh               0.00093 eV
Free-energy (cav+disp)  :  This term is not implemented in the current solvation scheme

---------------
SCF CONVERGENCE
---------------

  Last Energy change         ...   -2.8172e-10  Tolerance :   1.0000e-08
  Last MAX-Density change    ...    3.6867e-06  Tolerance :   1.0000e-07
  Last RMS-Density change    ...    1.9474e-07  Tolerance :   5.0000e-09
  Last DIIS Error            ...    3.2074e-03  Tolerance :   5.0000e-07
  Last Orbital Gradient      ...    2.3062e-06  Tolerance :   1.0000e-05
  Last Orbital Rotation      ...    2.7353e-06  Tolerance :   1.0000e-05


----------------
ORBITAL ENERGIES
----------------

  NO   OCC          E(Eh)            E(eV) 
   0   2.0000    -100.738451     -2741.2326 
   1   2.0000    -100.738433     -2741.2321 
   2   2.0000    -100.738419     -2741.2317 
   3   2.0000     -10.073465      -274.1129 
   4   2.0000      -9.203783      -250.4477 
   5   2.0000      -9.203766      -250.4472 
   6   2.0000      -9.203750      -250.4468 
   7   2.0000      -7.027199      -191.2198 
   8   2.0000      -7.027179      -191.2193 
   9   2.0000      -7.027165      -191.2189 
  10   2.0000      -7.016232      -190.9214 
  11   2.0000      -7.016216      -190.9210 
  12   2.0000      -7.016202      -190.9206 
  13   2.0000      -7.016019      -190.9156 
  14   2.0000      -7.016005      -190.9152 
  15   2.0000      -7.015989      -190.9148 
  16   2.0000      -0.862477       -23.4692 
  17   2.0000      -0.770477       -20.9657 
  18   2.0000      -0.770456       -20.9652 
  19   2.0000      -0.593003       -16.1364 
  20   2.0000      -0.457306       -12.4439 
  21   2.0000      -0.434722       -11.8294 
  22   2.0000      -0.434710       -11.8291 
  23   2.0000      -0.318981        -8.6799 
  24   2.0000      -0.318976        -8.6798 
  25   2.0000      -0.292722        -7.9654 
  26   2.0000      -0.292706        -7.9649 
  27   2.0000      -0.288564        -7.8522 
  28   2.0000      -0.276026        -7.5110 
  29   0.0000      -0.079730        -2.1696 
  30   0.0000      -0.032172        -0.8754 
  31   0.0000      -0.032168        -0.8753 
  32   0.0000       0.046453         1.2640 
  33   0.0000       0.138263         3.7623 
  34   0.0000       0.156258         4.2520 
  35   0.0000       0.156275         4.2525 
  36   0.0000       0.217676         5.9233 
  37   0.0000       0.240410         6.5419 
  38   0.0000       0.240412         6.5420 
  39   0.0000       0.265803         7.2329 
*Only the first 10 virtual orbitals were printed.

                    ********************************
                    * MULLIKEN POPULATION ANALYSIS *
                    ********************************

-----------------------
MULLIKEN ATOMIC CHARGES
-----------------------
   0 Cl:   -0.070980
   1 C :   -0.015139
   2 Cl:   -0.071037
   3 Cl:   -0.071067
   4 H :    0.228222
Sum of atomic charges:   -0.0000000

--------------------------------
MULLIKEN REDUCED ORBITAL CHARGES
--------------------------------
  0 Cls       :     5.921452  s :     5.921452
      pz      :     3.893334  p :    11.088553
      px      :     3.705482
      py      :     3.489736
      dz2     :     0.008682  d :     0.055809
      dxz     :     0.005637
      dyz     :     0.009922
      dx2y2   :     0.012416
      dxy     :     0.019153
      f0      :     0.000491  f :     0.005166
      f+1     :     0.000388
      f-1     :     0.000717
      f+2     :     0.000259
      f-2     :     0.000945
      f+3     :     0.001488
      f-3     :     0.000878

  1 C s       :     3.234176  s :     3.234176
      pz      :     1.045510  p :     2.580173
      px      :     0.767349
      py      :     0.767314
      dz2     :     0.033976  d :     0.191566
      dxz     :     0.029943
      dyz     :     0.030152
      dx2y2   :     0.048922
      dxy     :     0.048572
      f0      :     0.001152  f :     0.009225
      f+1     :     0.000886
      f-1     :     0.000833
      f+2     :     0.001233
      f-2     :     0.001318
      f+3     :     0.001569
      f-3     :     0.002234

  2 Cls       :     5.921450  s :     5.921450
      pz      :     3.877211  p :    11.088610
      px      :     3.810268
      py      :     3.401130
      dz2     :     0.008737  d :     0.055810
      dxz     :     0.003896
      dyz     :     0.012491
      dx2y2   :     0.014506
      dxy     :     0.016180
      f0      :     0.000520  f :     0.005167
      f+1     :     0.000222
      f-1     :     0.000841
      f+2     :     0.000573
      f-2     :     0.000765
      f+3     :     0.001417
      f-3     :     0.000827

  3 Cls       :     5.921463  s :     5.921463
      pz      :     3.870990  p :    11.088635
      px      :     3.296359
      py      :     3.921287
      dz2     :     0.008760  d :     0.055803
      dxz     :     0.015195
      dyz     :     0.001506
      dx2y2   :     0.018716
      dxy     :     0.011625
      f0      :     0.000531  f :     0.005165
      f+1     :     0.001002
      f-1     :     0.000049
      f+2     :     0.001128
      f-2     :     0.000260
      f+3     :     0.001363
      f-3     :     0.000835

  4 H s       :     0.749953  s :     0.749953
      pz      :     0.014270  p :     0.021825
      px      :     0.003779
      py      :     0.003776



                     *******************************
                     * LOEWDIN POPULATION ANALYSIS *
                     *******************************

----------------------
LOEWDIN ATOMIC CHARGES
----------------------
   0 Cl:    0.300434
   1 C :   -1.030672
   2 Cl:    0.300431
   3 Cl:    0.300347
   4 H :    0.129460

-------------------------------
LOEWDIN REDUCED ORBITAL CHARGES
-------------------------------
  0 Cls       :     5.619548  s :     5.619548
      pz      :     3.833362  p :    10.975854
      px      :     3.665741
      py      :     3.476750
      dz2     :     0.014011  d :     0.093382
      dxz     :     0.009686
      dyz     :     0.017486
      dx2y2   :     0.019572
      dxy     :     0.032627
      f0      :     0.001088  f :     0.010782
      f+1     :     0.000771
      f-1     :     0.001446
      f+2     :     0.000566
      f-2     :     0.002140
      f+3     :     0.002953
      f-3     :     0.001816

  1 C s       :     3.037054  s :     3.037054
      pz      :     1.130179  p :     3.191600
      px      :     1.030713
      py      :     1.030709
      dz2     :     0.146380  d :     0.740102
      dxz     :     0.105482
      dyz     :     0.103397
      dx2y2   :     0.190736
      dxy     :     0.194106
      f0      :     0.005364  f :     0.061917
      f+1     :     0.005319
      f-1     :     0.005191
      f+2     :     0.010162
      f-2     :     0.010373
      f+3     :     0.012185
      f-3     :     0.013323

  2 Cls       :     5.619532  s :     5.619532
      pz      :     3.819326  p :    10.975868
      px      :     3.757505
      py      :     3.399037
      dz2     :     0.013977  d :     0.093386
      dxz     :     0.006515
      dyz     :     0.022285
      dx2y2   :     0.023701
      dxy     :     0.026908
      f0      :     0.001115  f :     0.010783
      f+1     :     0.000438
      f-1     :     0.001747
      f+2     :     0.001273
      f-2     :     0.001696
      f+3     :     0.002808
      f-3     :     0.001706

  3 Cls       :     5.619580  s :     5.619580
      pz      :     3.813934  p :    10.975922
      px      :     3.307236
      py      :     3.854751
      dz2     :     0.013974  d :     0.093372
      dxz     :     0.027237
      dyz     :     0.002172
      dx2y2   :     0.031906
      dxy     :     0.018083
      f0      :     0.001124  f :     0.010780
      f+1     :     0.002101
      f-1     :     0.000076
      f+2     :     0.002495
      f-2     :     0.000568
      f+3     :     0.002705
      f-3     :     0.001712

  4 H s       :     0.801631  s :     0.801631
      pz      :     0.048722  p :     0.068909
      px      :     0.010097
      py      :     0.010089



                      *****************************
                      * MAYER POPULATION ANALYSIS *
                      *****************************

  NA   - Mulliken gross atomic population
  ZA   - Total nuclear charge
  QA   - Mulliken gross atomic charge
  VA   - Mayer's total valence
  BVA  - Mayer's bonded valence
  FA   - Mayer's free valence

  ATOM       NA         ZA         QA         VA         BVA        FA
  0 Cl    17.0710    17.0000    -0.0710     1.2224     1.2224    -0.0000
  1 C      6.0151     6.0000    -0.0151     4.2832     4.2832    -0.0000
  2 Cl    17.0710    17.0000    -0.0710     1.2223     1.2223    -0.0000
  3 Cl    17.0711    17.0000    -0.0711     1.2223     1.2223     0.0000
  4 H      0.7718     1.0000     0.2282     0.9393     0.9393     0.0000

  Mayer bond orders larger than 0.100000
B(  0-Cl,  1-C ) :   1.1200 B(  1-C ,  2-Cl) :   1.1199 B(  1-C ,  3-Cl) :   1.1199 
B(  1-C ,  4-H ) :   0.9235 

-------
TIMINGS
-------

Total SCF time: 0 days 0 hours 0 min 2 sec 

Total time                  ....       2.192 sec
Sum of individual times     ....       2.184 sec  ( 99.6%)

SCF preparation             ....       0.018 sec  (  0.8%)
Fock matrix formation       ....       2.133 sec  ( 97.3%)
  Startup                   ....       0.002 sec  (  0.1% of F)
  Split-RI-J                ....       0.336 sec  ( 15.7% of F)
  XC integration            ....       1.293 sec  ( 60.6% of F)
    Basis function eval.    ....       0.482 sec  ( 37.2% of XC)
    Density eval.           ....       0.225 sec  ( 17.4% of XC)
    XC-Functional eval.     ....       0.055 sec  (  4.2% of XC)
    XC-Potential eval.      ....       0.462 sec  ( 35.7% of XC)
  CPCM terms                ....       0.482 sec  ( 22.6% of F)
Diagonalization             ....       0.000 sec  (  0.0%)
Density matrix formation    ....       0.005 sec  (  0.2%)
Total Energy calculation    ....       0.002 sec  (  0.1%)
Population analysis         ....       0.003 sec  (  0.1%)
Orbital Transformation      ....       0.003 sec  (  0.1%)
Orbital Orthonormalization  ....       0.000 sec  (  0.0%)
DIIS solution               ....       0.013 sec  (  0.6%)
SOSCF solution              ....       0.007 sec  (  0.3%)
Finished LeanSCF after   2.2 sec

Maximum memory used throughout the entire LEANSCF-calculation: 13.3 MB

-------------------------   --------------------
FINAL SINGLE POINT ENERGY     -1419.495814973888
-------------------------   --------------------

------------------------------------------------------------------------------
                         ORCA SCF GRADIENT CALCULATION
------------------------------------------------------------------------------

Nuc. rep. gradient        (SHARK) ... done (  0.0 sec)
HCore & Overlap gradient  (SHARK) ... done (  0.0 sec)
Split-RIJ-J gradient      (SHARK) ... done (  0.2 sec)
XC gradient                       ... done (  0.6 sec)
CPCM gradient                     ... done (  0.1 sec)

------------------
CARTESIAN GRADIENT
------------------

   1   Cl  :   -0.001407839   -0.002008211   -0.000667422
   2   C   :    0.000073315    0.000067369    0.002604685
   3   Cl  :   -0.001039177    0.002192765   -0.000720557
   4   Cl  :    0.002404513   -0.000221270   -0.000735558
   5   H   :   -0.000030813   -0.000030652   -0.000481148

Difference to translation invariance:
           :   -0.0000000000    0.0000000000   -0.0000000000

Difference to rotation invariance:
           :    0.0001728823   -0.0002040659    0.0001372903

Norm of the Cartesian gradient     ...    0.0051251403
RMS gradient                       ...    0.0013233055
MAX gradient                       ...    0.0026046851

-------
TIMINGS
-------

Total SCF gradient time     ....        1.016 sec

Densities                   ....       0.000 sec  (  0.0%)
One electron gradient       ....       0.016 sec  (  1.6%)
RI-J Coulomb gradient       ....       0.223 sec  ( 21.9%)
XC gradient                 ....       0.578 sec  ( 56.9%)
CPCM gradient               ....       0.103 sec  ( 10.1%)
   A-Matrix (El+Nuc)        ....       0.007 sec  (  0.6%)
   Potential                ....       0.096 sec  (  9.4%)

Maximum memory used throughout the entire SCFGRAD-calculation: 17.0 MB
------------------------------------------------------------------------------
                         ORCA GEOMETRY RELAXATION STEP
------------------------------------------------------------------------------

Reading the OPT-File                    .... done
Getting information on internals        .... done
Copying old internal coords+grads       .... done
Making the new internal coordinates     .... (2022 redundants) done
Validating the new internal coordinates .... (2022 redundants) done
Calculating the B-matrix                .... done
Calculating the G,G- and P matrices     .... done
Transforming gradient to internals      .... done
Projecting the internal gradient        .... done
Number of atoms                         ....   5
Number of internal coordinates          ....  10
Current Energy                          .... -1419.495814974 Eh
Current gradient norm                   ....     0.005125140 Eh/bohr
Maximum allowed component of the step   ....  0.300
Current trust radius                    ....  0.300
Evaluating the initial hessian          ....  (Almloef) done
Projecting the Hessian                  .... done
Forming the augmented Hessian           .... done
Diagonalizing the augmented Hessian     .... done
Last element of RFO vector              ....  0.999905761
Lowest eigenvalues of augmented Hessian:
 -0.000060720  0.321507341  0.321562640  0.321614381  0.329570571
Length of the computed step             ....  0.013729726
The final length of the internal step   ....  0.013729726
Converting the step to Cartesian space:
 Initial RMS(Int)=    0.0043417205
Transforming coordinates:
 Iter   0:  RMS(Cart)=    0.0035446663 RMS(Int)=    0.0043416271
done
Storing new coordinates                 .... done

                                .--------------------.
          ----------------------|Geometry convergence|-------------------------
          Item                value                   Tolerance       Converged
          ---------------------------------------------------------------------
          RMS gradient        0.0013986389            0.0001000000      NO
          MAX gradient        0.0025390141            0.0003000000      NO
          RMS step            0.0043417205            0.0020000000      NO
          MAX step            0.0078945782            0.0040000000      NO
          ........................................................
          Max(Bonds)      0.0042      Max(Angles)    0.02
          Max(Dihed)        0.00      Max(Improp)    0.00
          ---------------------------------------------------------------------

The optimization has not yet converged - more geometry cycles are needed


    ---------------------------------------------------------------------------
                         Redundant Internal Coordinates
                            (Angstroem and degrees)

        Definition                    Value    dE/dq     Step     New-Value
    ----------------------------------------------------------------------------
     1. B(C   1,Cl  0)                1.7908  0.002539 -0.0042    1.7866   
     2. B(Cl  2,C   1)                1.7908  0.002530 -0.0042    1.7866   
     3. B(Cl  3,C   1)                1.7909  0.002524 -0.0042    1.7867   
     4. B(H   4,C   1)                1.0901 -0.000482  0.0007    1.0908   
     5. A(Cl  0,C   1,Cl  3)          110.90  0.000128   -0.02    110.88   
     6. A(Cl  2,C   1,Cl  3)          110.89  0.000135   -0.02    110.87   
     7. A(Cl  0,C   1,H   4)          108.03 -0.000142    0.02    108.05   
     8. A(Cl  2,C   1,H   4)          108.00 -0.000135    0.02    108.02   
     9. A(Cl  3,C   1,H   4)          108.00 -0.000144    0.02    108.02   
    10. A(Cl  0,C   1,Cl  2)          110.89  0.000133   -0.02    110.87   
    ----------------------------------------------------------------------------

Geometry step timings:
Preparation and reading OPT file:      0.000 s (28.300 %)
Internal coordinates            :      0.000 s ( 2.854 %)
B/P matrices and projection     :      0.000 s ( 7.610 %)
Hessian update/contruction      :      0.000 s (30.321 %)
Making the step                 :      0.000 s ( 5.826 %)
Converting the step to Cartesian:      0.000 s ( 2.140 %)
Storing new data                :      0.000 s ( 6.421 %)
Checking convergence            :      0.000 s ( 0.119 %)
Final printing                  :      0.000 s (16.290 %)
Total time                      :      0.001 s

Time for energy+gradient        :      3.606 s
Time for complete geometry iter :      3.658 s

         *************************************************************
         *                GEOMETRY OPTIMIZATION CYCLE   2            *
         *************************************************************
---------------------------------
CARTESIAN COORDINATES (ANGSTROEM)
---------------------------------
  Cl    -0.992771   -1.395223   -0.383796
  C      0.002896    0.002385    0.113622
  Cl    -0.721141    1.533813   -0.454333
  Cl     1.679817   -0.167285   -0.479249
  H      0.031199    0.026310    1.203756

----------------------------
CARTESIAN COORDINATES (A.U.)
----------------------------
  NO LB      ZA    FRAG     MASS         X           Y           Z
   0 Cl   17.0000    0    35.453   -1.876065   -2.636590   -0.725270
   1 C     6.0000    0    12.011    0.005472    0.004507    0.214715
   2 Cl   17.0000    0    35.453   -1.362759    2.898487   -0.858565
   3 Cl   17.0000    0    35.453    3.174395   -0.316122   -0.905649
   4 H     1.0000    0     1.008    0.058957    0.049718    2.274769

--------------------------------
INTERNAL COORDINATES (ANGSTROEM)
--------------------------------
 Cl     0   0   0     0.000000000000     0.00000000     0.00000000
 C      1   0   0     1.786640862774     0.00000000     0.00000000
 Cl     2   1   0     1.786638113337   110.86523834     0.00000000
 Cl     2   1   3     1.786714872215   110.87757662   236.39668496
 H      2   1   3     1.090763753395   108.05122923   118.19706289

---------------------------
INTERNAL COORDINATES (A.U.)
---------------------------
 Cl     0   0   0     0.000000000000     0.00000000     0.00000000
 C      1   0   0     3.376261930315     0.00000000     0.00000000
 Cl     2   1   0     3.376256734633   110.86523834     0.00000000
 Cl     2   1   3     3.376401787891   110.87757662   236.39668496
 H      2   1   3     2.061244770724   108.05122923   118.19706289

------------------------------------------------------------------------------
                   ___                                                        
                  /   \      - P O W E R E D   B Y -                         
                 /     \                                                     
                 |  |  |   _    _      __       _____    __    __             
                 |  |  |  | |  | |    /  \     |  _  \  |  |  /  |          
                  \  \/   | |  | |   /    \    | | | |  |  | /  /          
                 / \  \   | |__| |  /  /\  \   | |_| |  |  |/  /          
                |  |  |   |  __  | /  /__\  \  |    /   |      \           
                |  |  |   | |  | | |   __   |  |    \   |  |\   \          
                \     /   | |  | | |  |  |  |  | |\  \  |  | \   \       
                 \___/    |_|  |_| |__|  |__|  |_| \__\ |__|  \__/        
                                                                              
                      - O R C A' S   B I G   F R I E N D -                    
                                      &                                       
                       - I N T E G R A L  F E E D E R -                       
                                                                              
 v1 FN, 2020, v2 2021, v3 2022-2024                                           
------------------------------------------------------------------------------


----------------------
SHARK INTEGRAL PACKAGE
----------------------

Number of atoms                             ...      5
Number of basis functions                   ...    148
Number of shells                            ...     54
Maximum angular momentum                    ...      3
Integral batch strategy                     ... SHARK/LIBINT Hybrid
RI-J (if used) integral strategy            ... SPLIT-RIJ (Revised 2003 algorithm where possible)
Printlevel                                  ...      1
Contraction scheme used                     ... SEGMENTED contraction
Prescreening option                         ... SCHWARTZ
   Thresh                                   ... 2.500e-11
   Tcut                                     ... 2.500e-12
   Tpresel                                  ... 2.500e-12 
Coulomb Range Separation                    ... NOT USED
Exchange Range Separation                   ... NOT USED
Multipole approximations                    ... NOT USED
Finite Nucleus Model                        ... NOT USED
CABS basis                                  ... NOT available
Auxiliary Coulomb fitting basis             ... AVAILABLE
   # of basis functions in Aux-J            ...    213
   # of shells in Aux-J                     ...     71
   Maximum angular momentum in Aux-J        ...      4
Auxiliary J/K fitting basis                 ... NOT available
Auxiliary Correlation fitting basis         ... NOT available
Auxiliary 'external' fitting basis          ... NOT available

Checking pre-screening integrals            ... done (  0.0 sec) Dimension = 54
Check shell pair data                       ... done (  0.0 sec)
Shell pair information
Shell pair cut-off parameter TPreSel        ...   2.5e-12
Total number of shell pairs                 ...      1485
Shell pairs after pre-screening             ...      1386
Total number of primitive shell pairs       ...      5911
Primitive shell pairs kept                  ...      4131
          la=0 lb=0:    240 shell pairs
          la=1 lb=0:    392 shell pairs
          la=1 lb=1:    178 shell pairs
          la=2 lb=0:    178 shell pairs
          la=2 lb=1:    152 shell pairs
          la=2 lb=2:     36 shell pairs
          la=3 lb=0:     92 shell pairs
          la=3 lb=1:     76 shell pairs
          la=3 lb=2:     32 shell pairs
          la=3 lb=3:     10 shell pairs

Calculating one electron integrals          ... done (  0.0 sec)
Calculating RI/J V-Matrix + Cholesky decomp.... done (  0.0 sec)
Calculating Nuclear repulsion               ... done (  0.0 sec) ENN=    260.874255694469 Eh

Diagonalization of the overlap matrix:
Smallest eigenvalue                        ... 2.883e-03
Time for diagonalization                   ...    0.001 sec
Threshold for overlap eigenvalues          ... 1.000e-07
Number of eigenvalues below threshold      ... 0
Time for construction of square roots      ...    0.000 sec
Total time needed                          ...    0.002 sec

-------------------
DFT GRID GENERATION
-------------------

General Integration Accuracy     IntAcc      ... 4.388
Radial Grid Type                 RadialGrid  ... OptM3 with GC (2021)
Angular Grid (max. ang.)         AngularGrid ... 4 (Lebedev-302)
Angular grid pruning method      GridPruning ... 4 (adaptive)
Weight generation scheme         WeightScheme... mBecke (2022)
Basis function cutoff            BFCut       ... 1.0000e-11
Integration weight cutoff        WCut        ... 1.0000e-14
Partially contracted basis set               ... off
Rotationally invariant grid construction     ... off
Angular grids for H and He will be reduced by one unit

Total number of grid points                  ...    31409
Total number of batches                      ...      493
Average number of points per batch           ...       63
Average number of grid points per atom       ...     6282
Initializing property integral containers    ... done (  0.0 sec)

SHARK setup successfully completed in   0.1 seconds

Maximum memory used throughout the entire STARTUP-calculation: 18.2 MB
Occupation numbers will be reassigned to an Aufbau configuration
             **** ENERGY FILE WAS UPDATED (geo_opt_tzvp.en.tmp) ****
Finished Guess after   0.0 sec
Maximum memory used throughout the entire GUESS-calculation: 12.5 MB
--------------------
CPCM SOLVATION MODEL
--------------------
CPCM parameters:
  Epsilon                                         ...     INFINITY
  Refrac                                          ...       1.3300
  Rsolv                                           ...       1.3000
  Surface type                                    ... GAUSSIAN VDW
  Discretization scheme                           ... Constant charge density
    Threshold for H atoms                         ...       5.0000 (charges/Ang^2)
    Threshold for non-H atoms                     ...       5.0000 (charges/Ang^2)
  Epsilon function type                           ...         CPCM
Solvent:                                          ... CONDUCTOR
Radii:
  Scheme                                          ... Element-dependent radii
  Radius for Cl used is    3.8739 Bohr (=   2.0500 Ang.)
  Radius for C  used is    3.7795 Bohr (=   2.0000 Ang.)
  Radius for H  used is    2.4566 Bohr (=   1.3000 Ang.)
Calculating surface                               ...        done! (  0.0s)
Cavity surface points                             ...          730
Cavity Volume                                     ...     689.0177
Cavity Surface-area                               ...     428.7576
Calculating surface distance matrix               ...        done! (  0.0s)
Performing Cholesky decomposition & store         ...        done! (  0.0s)
Overall time for CPCM initialization              ...                 0.0s

----------------------------------------D-I-I-S--------------------------------------------
Iteration    Energy (Eh)           Delta-E    RMSDP     MaxDP     DIISErr   Damp  Time(sec)
-------------------------------------------------------------------------------------------
               ***  Starting incremental Fock matrix formation  ***
                              *** Initializing SOSCF ***
---------------------------------------S-O-S-C-F--------------------------------------
Iteration    Energy (Eh)           Delta-E    RMSDP     MaxDP     MaxGrad    Time(sec)
--------------------------------------------------------------------------------------
    1    -1419.4958422975305439     0.00e+00  3.97e-05  8.11e-04  1.37e-04     0.2
               *** Restarting incremental Fock matrix formation ***
    2    -1419.4958509328059790    -8.64e-06  4.06e-05  1.02e-03  4.65e-04     0.2
    3    -1419.4958453513645509     5.58e-06  2.37e-05  5.41e-04  9.51e-04     0.2
    4    -1419.4958530321712260    -7.68e-06  3.90e-06  1.07e-04  1.80e-05     0.2
    5    -1419.4958530315316239     6.40e-10  1.71e-06  5.48e-05  1.65e-05     0.2
                 **** Energy Check signals convergence ****

               *****************************************************
               *                     SUCCESS                       *
               *           SCF CONVERGED AFTER   5 CYCLES          *
               *****************************************************

             **** ENERGY FILE WAS UPDATED (geo_opt_tzvp.en.tmp) ****

----------------
TOTAL SCF ENERGY
----------------

Total Energy       :      -1419.49585303153162 Eh          -38626.44589 eV

Components:
Nuclear Repulsion  :        260.87425569446901 Eh            7098.74939 eV
Electronic Energy  :      -1680.36521913030333 Eh          -45725.06223 eV
One Electron Energy:      -2477.81744719453445 Eh          -67424.84055 eV
Two Electron Energy:        797.45222806423112 Eh           21699.77832 eV
CPCM Dielectric    :         -0.00488959569726 Eh              -0.13305 eV

Virial components:
Potential Energy   :      -2836.50561034941575 Eh          -77185.24168 eV
Kinetic Energy     :       1417.00975731788412 Eh           38558.79579 eV
Virial Ratio       :          2.00175446619249

DFT components:
N(Alpha)           :       28.999998506960 electrons
N(Beta)            :       28.999998506960 electrons
N(Total)           :       57.999997013920 electrons
E(X)               :      -88.132429922785 Eh       
E(C)               :       -2.529013399128 Eh       
E(XC)              :      -90.661443321913 Eh       

CPCM Solvation Model Properties:
Surface-charge          :         -0.01975428411678
Corrected charge        :          0.00000000000000
Outlying charge corr.   :          0.00003412672618 Eh               0.00093 eV
Free-energy (cav+disp)  :  This term is not implemented in the current solvation scheme

---------------
SCF CONVERGENCE
---------------

  Last Energy change         ...   -6.3960e-10  Tolerance :   1.0000e-08
  Last MAX-Density change    ...    5.4759e-05  Tolerance :   1.0000e-07
  Last RMS-Density change    ...    1.7074e-06  Tolerance :   5.0000e-09
  Last DIIS Error            ...    1.2092e-03  Tolerance :   5.0000e-07
  Last Orbital Gradient      ...    1.6493e-05  Tolerance :   1.0000e-05
  Last Orbital Rotation      ...    1.4965e-05  Tolerance :   1.0000e-05


Total SCF time: 0 days 0 hours 0 min 1 sec 
Finished LeanSCF after   1.0 sec

Maximum memory used throughout the entire LEANSCF-calculation: 13.4 MB

-------------------------   --------------------
FINAL SINGLE POINT ENERGY     -1419.495853031532
-------------------------   --------------------

------------------------------------------------------------------------------
                         ORCA SCF GRADIENT CALCULATION
------------------------------------------------------------------------------

Nuc. rep. gradient        (SHARK) ... done (  0.0 sec)
HCore & Overlap gradient  (SHARK) ... done (  0.0 sec)
Split-RIJ-J gradient      (SHARK) ... done (  0.2 sec)
XC gradient                       ... done (  0.6 sec)
CPCM gradient                     ... done (  0.1 sec)

------------------
CARTESIAN GRADIENT
------------------

   1   Cl  :   -0.000357032   -0.000533210   -0.000310355
   2   C   :    0.000028136    0.000031573    0.000985715
   3   Cl  :   -0.000277106    0.000568658   -0.000281512
   4   Cl  :    0.000629920   -0.000044914   -0.000274511
   5   H   :   -0.000023918   -0.000022107   -0.000119338

Difference to translation invariance:
           :   -0.0000000000   -0.0000000000   -0.0000000000

Difference to rotation invariance:
           :    0.0001919495   -0.0002148225    0.0001437224

Norm of the Cartesian gradient     ...    0.0015653791
RMS gradient                       ...    0.0004041791
MAX gradient                       ...    0.0009857152

-------
TIMINGS
-------

Total SCF gradient time     ....        1.030 sec

Densities                   ....       0.000 sec  (  0.0%)
One electron gradient       ....       0.017 sec  (  1.6%)
RI-J Coulomb gradient       ....       0.225 sec  ( 21.8%)
XC gradient                 ....       0.601 sec  ( 58.3%)
CPCM gradient               ....       0.095 sec  (  9.3%)
   A-Matrix (El+Nuc)        ....       0.006 sec  (  0.6%)
   Potential                ....       0.089 sec  (  8.6%)

Maximum memory used throughout the entire SCFGRAD-calculation: 17.0 MB
------------------------------------------------------------------------------
                         ORCA GEOMETRY RELAXATION STEP
------------------------------------------------------------------------------

Reading the OPT-File                    .... done
Getting information on internals        .... done
Copying old internal coords+grads       .... done
Making the new internal coordinates     .... (2022 redundants) done
Validating the new internal coordinates .... (2022 redundants) done
Calculating the B-matrix                .... done
Calculating the G,G- and P matrices     .... done
Transforming gradient to internals      .... done
Projecting the internal gradient        .... done
Number of atoms                         ....   5
Number of internal coordinates          ....  10
Current Energy                          .... -1419.495853032 Eh
Current gradient norm                   ....     0.001565379 Eh/bohr
Maximum allowed component of the step   ....  0.300
Current trust radius                    ....  0.300
Updating the Hessian (BFGS)             .... done
Forming the augmented Hessian           .... done
Diagonalizing the augmented Hessian     .... done
Last element of RFO vector              ....  0.999985024
Lowest eigenvalues of augmented Hessian:
 -0.000006841  0.227933346  0.321518359  0.321566600  0.329570574
Length of the computed step             ....  0.005472861
The final length of the internal step   ....  0.005472861
Converting the step to Cartesian space:
 Initial RMS(Int)=    0.0017306706
Transforming coordinates:
 Iter   0:  RMS(Cart)=    0.0012586330 RMS(Int)=    0.0017304711
done
Storing new coordinates                 .... done
The predicted energy change is          ....    -0.000003421
Previously predicted energy change      ....    -0.000030366
Actually observed energy change         ....    -0.000038058
Ratio of predicted to observed change   ....     1.253315561
New trust radius                        ....     0.300000000

                                .--------------------.
          ----------------------|Geometry convergence|-------------------------
          Item                value                   Tolerance       Converged
          ---------------------------------------------------------------------
          Energy change      -0.0000380576            0.0000050000      NO
          RMS gradient        0.0003955522            0.0001000000      NO
          MAX gradient        0.0006999699            0.0003000000      NO
          RMS step            0.0017306706            0.0020000000      YES
          MAX step            0.0030913055            0.0040000000      YES
          ........................................................
          Max(Bonds)      0.0016      Max(Angles)    0.03
          Max(Dihed)        0.00      Max(Improp)    0.00
          ---------------------------------------------------------------------

The optimization has not yet converged - more geometry cycles are needed


    ---------------------------------------------------------------------------
                         Redundant Internal Coordinates
                            (Angstroem and degrees)

        Definition                    Value    dE/dq     Step     New-Value
    ----------------------------------------------------------------------------
     1. B(C   1,Cl  0)                1.7866  0.000700 -0.0016    1.7850   
     2. B(Cl  2,C   1)                1.7866  0.000690 -0.0016    1.7850   
     3. B(Cl  3,C   1)                1.7867  0.000688 -0.0016    1.7851   
     4. B(H   4,C   1)                1.0908 -0.000120  0.0003    1.0910   
     5. A(Cl  0,C   1,Cl  3)          110.88 -0.000138    0.03    110.91   
     6. A(Cl  2,C   1,Cl  3)          110.87 -0.000128    0.03    110.90   
     7. A(Cl  0,C   1,H   4)          108.05  0.000139   -0.03    108.02   
     8. A(Cl  2,C   1,H   4)          108.02  0.000141   -0.03    107.99   
     9. A(Cl  3,C   1,H   4)          108.02  0.000138   -0.03    107.99   
    10. A(Cl  0,C   1,Cl  2)          110.87 -0.000129    0.03    110.89   
    ----------------------------------------------------------------------------

Geometry step timings:
Preparation and reading OPT file:      0.000 s (24.772 %)
Internal coordinates            :      0.000 s ( 3.259 %)
B/P matrices and projection     :      0.000 s ( 8.996 %)
Hessian update/contruction      :      0.000 s (28.422 %)
Making the step                 :      0.000 s ( 5.997 %)
Converting the step to Cartesian:      0.000 s ( 2.738 %)
Storing new data                :      0.000 s ( 6.128 %)
Checking convergence            :      0.000 s ( 1.434 %)
Final printing                  :      0.000 s (18.123 %)
Total time                      :      0.001 s

Time for energy+gradient        :      2.375 s
Time for complete geometry iter :      2.433 s

         *************************************************************
         *                GEOMETRY OPTIMIZATION CYCLE   3            *
         *************************************************************
---------------------------------
CARTESIAN COORDINATES (ANGSTROEM)
---------------------------------
  Cl    -0.992046   -1.394185   -0.383317
  C      0.002873    0.002354    0.112727
  Cl    -0.720607    1.532688   -0.453813
  Cl     1.678603   -0.167147   -0.478710
  H      0.031176    0.026290    1.203113

----------------------------
CARTESIAN COORDINATES (A.U.)
----------------------------
  NO LB      ZA    FRAG     MASS         X           Y           Z
   0 Cl   17.0000    0    35.453   -1.874695   -2.634627   -0.724364
   1 C     6.0000    0    12.011    0.005429    0.004448    0.213023
   2 Cl   17.0000    0    35.453   -1.361750    2.896361   -0.857583
   3 Cl   17.0000    0    35.453    3.172101   -0.315863   -0.904630
   4 H     1.0000    0     1.008    0.058915    0.049681    2.273554

--------------------------------
INTERNAL COORDINATES (ANGSTROEM)
--------------------------------
 Cl     0   0   0     0.000000000000     0.00000000     0.00000000
 C      1   0   0     1.785005014336     0.00000000     0.00000000
 Cl     2   1   0     1.785025112193   110.89368887     0.00000000
 Cl     2   1   3     1.785105193559   110.90778568   236.31868039
 H      2   1   3     1.091016049960   108.02056908   118.15714393

---------------------------
INTERNAL COORDINATES (A.U.)
---------------------------
 Cl     0   0   0     0.000000000000     0.00000000     0.00000000
 C      1   0   0     3.373170624772     0.00000000     0.00000000
 Cl     2   1   0     3.373208604218   110.89368887     0.00000000
 Cl     2   1   3     3.373359936068   110.90778568   236.31868039
 H      2   1   3     2.061721542137   108.02056908   118.15714393

------------------------------------------------------------------------------
                   ___                                                        
                  /   \      - P O W E R E D   B Y -                         
                 /     \                                                     
                 |  |  |   _    _      __       _____    __    __             
                 |  |  |  | |  | |    /  \     |  _  \  |  |  /  |          
                  \  \/   | |  | |   /    \    | | | |  |  | /  /          
                 / \  \   | |__| |  /  /\  \   | |_| |  |  |/  /          
                |  |  |   |  __  | /  /__\  \  |    /   |      \           
                |  |  |   | |  | | |   __   |  |    \   |  |\   \          
                \     /   | |  | | |  |  |  |  | |\  \  |  | \   \       
                 \___/    |_|  |_| |__|  |__|  |_| \__\ |__|  \__/        
                                                                              
                      - O R C A' S   B I G   F R I E N D -                    
                                      &                                       
                       - I N T E G R A L  F E E D E R -                       
                                                                              
 v1 FN, 2020, v2 2021, v3 2022-2024                                           
------------------------------------------------------------------------------


----------------------
SHARK INTEGRAL PACKAGE
----------------------

Number of atoms                             ...      5
Number of basis functions                   ...    148
Number of shells                            ...     54
Maximum angular momentum                    ...      3
Integral batch strategy                     ... SHARK/LIBINT Hybrid
RI-J (if used) integral strategy            ... SPLIT-RIJ (Revised 2003 algorithm where possible)
Printlevel                                  ...      1
Contraction scheme used                     ... SEGMENTED contraction
Prescreening option                         ... SCHWARTZ
   Thresh                                   ... 2.500e-11
   Tcut                                     ... 2.500e-12
   Tpresel                                  ... 2.500e-12 
Coulomb Range Separation                    ... NOT USED
Exchange Range Separation                   ... NOT USED
Multipole approximations                    ... NOT USED
Finite Nucleus Model                        ... NOT USED
CABS basis                                  ... NOT available
Auxiliary Coulomb fitting basis             ... AVAILABLE
   # of basis functions in Aux-J            ...    213
   # of shells in Aux-J                     ...     71
   Maximum angular momentum in Aux-J        ...      4
Auxiliary J/K fitting basis                 ... NOT available
Auxiliary Correlation fitting basis         ... NOT available
Auxiliary 'external' fitting basis          ... NOT available

Checking pre-screening integrals            ... done (  0.0 sec) Dimension = 54
Check shell pair data                       ... done (  0.0 sec)
Shell pair information
Shell pair cut-off parameter TPreSel        ...   2.5e-12
Total number of shell pairs                 ...      1485
Shell pairs after pre-screening             ...      1386
Total number of primitive shell pairs       ...      5911
Primitive shell pairs kept                  ...      4131
          la=0 lb=0:    240 shell pairs
          la=1 lb=0:    392 shell pairs
          la=1 lb=1:    178 shell pairs
          la=2 lb=0:    178 shell pairs
          la=2 lb=1:    152 shell pairs
          la=2 lb=2:     36 shell pairs
          la=3 lb=0:     92 shell pairs
          la=3 lb=1:     76 shell pairs
          la=3 lb=2:     32 shell pairs
          la=3 lb=3:     10 shell pairs

Calculating one electron integrals          ... done (  0.0 sec)
Calculating RI/J V-Matrix + Cholesky decomp.... done (  0.0 sec)
Calculating Nuclear repulsion               ... done (  0.0 sec) ENN=    261.078330237415 Eh

Diagonalization of the overlap matrix:
Smallest eigenvalue                        ... 2.860e-03
Time for diagonalization                   ...    0.001 sec
Threshold for overlap eigenvalues          ... 1.000e-07
Number of eigenvalues below threshold      ... 0
Time for construction of square roots      ...    0.000 sec
Total time needed                          ...    0.002 sec

-------------------
DFT GRID GENERATION
-------------------

General Integration Accuracy     IntAcc      ... 4.388
Radial Grid Type                 RadialGrid  ... OptM3 with GC (2021)
Angular Grid (max. ang.)         AngularGrid ... 4 (Lebedev-302)
Angular grid pruning method      GridPruning ... 4 (adaptive)
Weight generation scheme         WeightScheme... mBecke (2022)
Basis function cutoff            BFCut       ... 1.0000e-11
Integration weight cutoff        WCut        ... 1.0000e-14
Partially contracted basis set               ... off
Rotationally invariant grid construction     ... off
Angular grids for H and He will be reduced by one unit

Total number of grid points                  ...    31407
Total number of batches                      ...      494
Average number of points per batch           ...       63
Average number of grid points per atom       ...     6281
Initializing property integral containers    ... done (  0.0 sec)

SHARK setup successfully completed in   0.1 seconds

Maximum memory used throughout the entire STARTUP-calculation: 18.2 MB
Occupation numbers will be reassigned to an Aufbau configuration
             **** ENERGY FILE WAS UPDATED (geo_opt_tzvp.en.tmp) ****
Finished Guess after   0.0 sec
Maximum memory used throughout the entire GUESS-calculation: 12.5 MB
--------------------
CPCM SOLVATION MODEL
--------------------
CPCM parameters:
  Epsilon                                         ...     INFINITY
  Refrac                                          ...       1.3300
  Rsolv                                           ...       1.3000
[...]
    5    -1419.4983863548613954    -9.19e-04  3.61e-05  1.06e-03  2.69e-04     0.3
               *** Restarting incremental Fock matrix formation ***
    6    -1419.4983873808980661    -1.03e-06  2.11e-05  6.99e-04  9.59e-05     0.3
    7    -1419.4983875877023820    -2.07e-07  6.79e-06  2.36e-04  2.33e-05     0.3
    8    -1419.4983875676125535     2.01e-08  2.36e-06  6.97e-05  5.24e-05     0.3
    9    -1419.4983875966572668    -2.90e-08  4.08e-07  1.83e-05  2.41e-06     0.3
                  *** Gradient check signals convergence ***

               *****************************************************
               *                     SUCCESS                       *
               *           SCF CONVERGED AFTER   9 CYCLES          *
               *****************************************************

             **** ENERGY FILE WAS UPDATED (single_point_tzvpd.en.tmp) ****

----------------
TOTAL SCF ENERGY
----------------

Total Energy       :      -1419.49838759665727 Eh          -38626.51486 eV

Components:
Nuclear Repulsion  :        261.07039776134116 Eh            7104.08669 eV
Electronic Energy  :      -1680.56365256423646 Eh          -45730.46188 eV
One Electron Energy:      -2478.03838998067204 Eh          -67430.85271 eV
Two Electron Energy:        797.47473741643557 Eh           21700.39083 eV
CPCM Dielectric    :         -0.00513279376203 Eh              -0.13967 eV

Virial components:
Potential Energy   :      -2836.46802790925449 Eh          -77184.21901 eV
Kinetic Energy     :       1416.96964031259722 Eh           38557.70415 eV
Virial Ratio       :          2.00178461641811

DFT components:
N(Alpha)           :       29.000004356907 electrons
N(Beta)            :       29.000004356907 electrons
N(Total)           :       58.000008713815 electrons
E(X)               :      -88.123807654576 Eh       
E(C)               :       -2.528089165474 Eh       
E(XC)              :      -90.651896820049 Eh       

CPCM Solvation Model Properties:
Surface-charge          :         -0.02395199884312
Corrected charge        :         -0.00000000000000
Outlying charge corr.   :          0.00005018188602 Eh               0.00137 eV
Free-energy (cav+disp)  :  This term is not implemented in the current solvation scheme

---------------
SCF CONVERGENCE
---------------

  Last Energy change         ...    2.9045e-08  Tolerance :   1.0000e-08
  Last MAX-Density change    ...    1.8325e-05  Tolerance :   1.0000e-07
  Last RMS-Density change    ...    4.0829e-07  Tolerance :   5.0000e-09
  Last DIIS Error            ...    2.6858e-04  Tolerance :   5.0000e-07
  Last Orbital Gradient      ...    2.4104e-06  Tolerance :   1.0000e-05
  Last Orbital Rotation      ...    3.3557e-06  Tolerance :   1.0000e-05


----------------
ORBITAL ENERGIES
----------------

  NO   OCC          E(Eh)            E(eV) 
   0   2.0000    -100.741312     -2741.3105 
   1   2.0000    -100.741289     -2741.3098 
   2   2.0000    -100.741273     -2741.3094 
   3   2.0000     -10.074129      -274.1310 
   4   2.0000      -9.206538      -250.5226 
   5   2.0000      -9.206516      -250.5220 
   6   2.0000      -9.206499      -250.5216 
   7   2.0000      -7.029972      -191.2953 
   8   2.0000      -7.029946      -191.2945 
   9   2.0000      -7.029931      -191.2941 
  10   2.0000      -7.018963      -190.9957 
  11   2.0000      -7.018941      -190.9951 
  12   2.0000      -7.018925      -190.9947 
  13   2.0000      -7.018769      -190.9904 
  14   2.0000      -7.018748      -190.9899 
  15   2.0000      -7.018731      -190.9894 
  16   2.0000      -0.866291       -23.5730 
  17   2.0000      -0.773024       -21.0351 
  18   2.0000      -0.772994       -21.0342 
  19   2.0000      -0.594162       -16.1680 
  20   2.0000      -0.459678       -12.5085 
  21   2.0000      -0.437423       -11.9029 
  22   2.0000      -0.437406       -11.9024 
  23   2.0000      -0.321090        -8.7373 
  24   2.0000      -0.321084        -8.7371 
  25   2.0000      -0.294505        -8.0139 
  26   2.0000      -0.294484        -8.0133 
  27   2.0000      -0.290043        -7.8925 
  28   2.0000      -0.277475        -7.5505 
  29   0.0000      -0.083746        -2.2788 
  30   0.0000      -0.037896        -1.0312 
  31   0.0000      -0.037886        -1.0309 
  32   0.0000       0.000846         0.0230 
  33   0.0000       0.023673         0.6442 
  34   0.0000       0.025669         0.6985 
  35   0.0000       0.025672         0.6986 
  36   0.0000       0.062680         1.7056 
  37   0.0000       0.062686         1.7058 
  38   0.0000       0.062717         1.7066 
  39   0.0000       0.064887         1.7657 
*Only the first 10 virtual orbitals were printed.

                    ********************************
                    * MULLIKEN POPULATION ANALYSIS *
                    ********************************

-----------------------
MULLIKEN ATOMIC CHARGES
-----------------------
   0 Cl:   -0.189078
   1 C :    0.201023
   2 Cl:   -0.189124
   3 Cl:   -0.189141
   4 H :    0.366319
Sum of atomic charges:   -0.0000000

--------------------------------
MULLIKEN REDUCED ORBITAL CHARGES
--------------------------------
  0 Cls       :     5.981403  s :     5.981403
      pz      :     3.910308  p :    11.135785
      px      :     3.724222
      py      :     3.501254
      dz2     :     0.010752  d :     0.066618
      dxz     :     0.006806
      dyz     :     0.011231
      dx2y2   :     0.017772
      dxy     :     0.020056
      f0      :     0.000497  f :     0.005273
      f+1     :     0.000399
      f-1     :     0.000736
      f+2     :     0.000262
      f-2     :     0.000963
      f+3     :     0.001503
      f-3     :     0.000913

  1 C s       :     3.192988  s :     3.192988
      pz      :     1.100215  p :     2.476548
      px      :     0.688177
      py      :     0.688155
      dz2     :     0.047488  d :     0.120040
      dxz     :     0.012646
      dyz     :     0.011808
      dx2y2   :     0.023352
      dxy     :     0.024746
      f0      :     0.001100  f :     0.009402
      f+1     :     0.000867
      f-1     :     0.000812
      f+2     :     0.001314
      f-2     :     0.001403
      f+3     :     0.001623
      f-3     :     0.002284

  2 Cls       :     5.981422  s :     5.981422
      pz      :     3.893457  p :    11.135825
      px      :     3.832575
      py      :     3.409793
      dz2     :     0.010799  d :     0.066603
      dxz     :     0.004916
      dyz     :     0.013761
      dx2y2   :     0.018184
      dxy     :     0.018943
      f0      :     0.000526  f :     0.005273
      f+1     :     0.000230
      f-1     :     0.000865
      f+2     :     0.000582
      f-2     :     0.000778
      f+3     :     0.001431
      f-3     :     0.000861

  3 Cls       :     5.981414  s :     5.981414
      pz      :     3.886973  p :    11.135857
      px      :     3.301503
      py      :     3.947381
      dz2     :     0.010817  d :     0.066598
      dxz     :     0.016450
      dyz     :     0.002478
      dx2y2   :     0.019383
      dxy     :     0.017470
      f0      :     0.000537  f :     0.005271
      f+1     :     0.001030
      f-1     :     0.000051
      f+2     :     0.001147
      f-2     :     0.000262
      f+3     :     0.001376
      f-3     :     0.000868

  4 H s       :     0.573003  s :     0.573003
      pz      :     0.043881  p :     0.060678
      px      :     0.008410
      py      :     0.008387



                     *******************************
                     * LOEWDIN POPULATION ANALYSIS *
                     *******************************

----------------------
LOEWDIN ATOMIC CHARGES
----------------------
   0 Cl:    0.490747
   1 C :   -1.503653
   2 Cl:    0.490694
   3 Cl:    0.490624
   4 H :    0.031587

-------------------------------
LOEWDIN REDUCED ORBITAL CHARGES
-------------------------------
  0 Cls       :     5.488116  s :     5.488116
      pz      :     3.721125  p :    10.741228
      px      :     3.590937
      py      :     3.429166
      dz2     :     0.038797  d :     0.268807
      dxz     :     0.028310
      dyz     :     0.048758
      dx2y2   :     0.083230
      dxy     :     0.069712
      f0      :     0.001107  f :     0.011102
      f+1     :     0.000806
      f-1     :     0.001498
      f+2     :     0.000582
      f-2     :     0.002205
      f+3     :     0.002955
      f-3     :     0.001948

  1 C s       :     2.899482  s :     2.899482
      pz      :     1.046157  p :     2.922163
      px      :     0.938002
      py      :     0.938004
      dz2     :     0.276537  d :     1.616734
      dxz     :     0.253761
      dyz     :     0.251152
      dx2y2   :     0.415533
      dxy     :     0.419751
      f0      :     0.006456  f :     0.065275
      f+1     :     0.005501
      f-1     :     0.005369
      f+2     :     0.010451
      f-2     :     0.010668
      f+3     :     0.013256
      f-3     :     0.013574

  2 Cls       :     5.488121  s :     5.488121
      pz      :     3.708487  p :    10.741261
      px      :     3.669584
      py      :     3.363190
      dz2     :     0.040415  d :     0.268822
      dxz     :     0.019311
      dyz     :     0.058725
      dx2y2   :     0.076046
      dxy     :     0.074325
      f0      :     0.001130  f :     0.011101
      f+1     :     0.000465
      f-1     :     0.001812
      f+2     :     0.001309
      f-2     :     0.001742
      f+3     :     0.002808
      f-3     :     0.001835

  3 Cls       :     5.488177  s :     5.488177
      pz      :     3.703663  p :    10.741334
      px      :     3.284690
      py      :     3.752981
      dz2     :     0.041031  d :     0.268767
      dxz     :     0.070189
      dyz     :     0.008223
      dx2y2   :     0.065341
      dxy     :     0.083984
      f0      :     0.001137  f :     0.011098
      f+1     :     0.002178
      f-1     :     0.000093
      f+2     :     0.002561
      f-2     :     0.000585
      f+3     :     0.002705
      f-3     :     0.001838

  4 H s       :     0.693326  s :     0.693326
      pz      :     0.130608  p :     0.275087
      px      :     0.072252
      py      :     0.072227



                      *****************************
                      * MAYER POPULATION ANALYSIS *
                      *****************************

  NA   - Mulliken gross atomic population
  ZA   - Total nuclear charge
  QA   - Mulliken gross atomic charge
  VA   - Mayer's total valence
  BVA  - Mayer's bonded valence
  FA   - Mayer's free valence

  ATOM       NA         ZA         QA         VA         BVA        FA
  0 Cl    17.1891    17.0000    -0.1891     1.1080     1.1080    -0.0000
  1 C      5.7990     6.0000     0.2010     3.6220     3.6220     0.0000
  2 Cl    17.1891    17.0000    -0.1891     1.1080     1.1080    -0.0000
  3 Cl    17.1891    17.0000    -0.1891     1.1079     1.1079     0.0000
  4 H      0.6337     1.0000     0.3663     0.9478     0.9478     0.0000

  Mayer bond orders larger than 0.100000
B(  0-Cl,  1-C ) :   0.9234 B(  1-C ,  2-Cl) :   0.9231 B(  1-C ,  3-Cl) :   0.9232 
B(  1-C ,  4-H ) :   0.8523 

-------
TIMINGS
-------

Total SCF time: 0 days 0 hours 0 min 2 sec 

Total time                  ....       2.606 sec
Sum of individual times     ....       2.601 sec  ( 99.8%)

SCF preparation             ....       0.020 sec  (  0.8%)
Fock matrix formation       ....       2.543 sec  ( 97.6%)
  Startup                   ....       0.002 sec  (  0.1% of F)
  Split-RI-J                ....       0.388 sec  ( 15.3% of F)
  XC integration            ....       1.572 sec  ( 61.8% of F)
    Basis function eval.    ....       0.491 sec  ( 31.3% of XC)
    Density eval.           ....       0.267 sec  ( 17.0% of XC)
    XC-Functional eval.     ....       0.047 sec  (  3.0% of XC)
    XC-Potential eval.      ....       0.719 sec  ( 45.8% of XC)
  CPCM terms                ....       0.561 sec  ( 22.1% of F)
Diagonalization             ....       0.000 sec  (  0.0%)
Density matrix formation    ....       0.005 sec  (  0.2%)
Total Energy calculation    ....       0.002 sec  (  0.1%)
Population analysis         ....       0.003 sec  (  0.1%)
Orbital Transformation      ....       0.004 sec  (  0.2%)
Orbital Orthonormalization  ....       0.000 sec  (  0.0%)
DIIS solution               ....       0.018 sec  (  0.7%)
SOSCF solution              ....       0.007 sec  (  0.3%)
Finished LeanSCF after   2.6 sec

Maximum memory used throughout the entire LEANSCF-calculation: 16.1 MB

-------------------------   --------------------
FINAL SINGLE POINT ENERGY     -1419.498387596657
-------------------------   --------------------


------------------------------------------------------------------------------
                              ORCA PROPERTY CALCULATIONS
------------------------------------------------------------------------------

GBWName                                 ... single_point_tzvpd.gbw
Number of atoms                         ...      5
Number of basis functions               ...    184
Max core memory                         ...   2000 MB

Electric properties:
Dipole moment                           ... YES
Quadrupole moment                       ...  NO
Static polarizability (Dipole/Dipole)   ...  NO
Static polarizability (Dipole/Quad.)    ...  NO
Static polarizability (Quad./Quad.)     ...  NO
Static polarizability (Velocity)        ...  NO

Atomic electric properties:
Dipole moment                           ...  NO
Quadrupole moment                       ...  NO
Static polarizability                   ...  NO

Choice of electric origin               ... Center of mass
Position of electric origin             ...    -0.018059    -0.015201    -0.697635

General magnetic properties:
Magnetizability                         ...  NO

EPR properties:
g-Tensor (aka g-matrix)                 ...  NO
Zero-Field splitting spin-orbit         ...  NO
Zero-field splitting spin-spin          ...  NO
Hyperfine couplings                     ...  NO (   0 nuclei)
Quadrupole couplings                    ...  NO (   0 nuclei)
Contact density                         ...  NO (   0 nuclei)

NMR properties:
Chemical shifts                         ...  NO (   0 nuclei)
Spin-rotation constants                 ...  NO (   0 nuclei)
Spin-spin couplings                     ...  NO (   0 nuclei,    0 pairs)

Choice of magnetic origin               ... GIAO
Position of magnetic origin             ...     0.000000     0.000000     0.000000

Properties with geometric perturbations:
SCF Hessian                             ...  NO
IR spectrum                             ...  NO
VCD spectrum                            ...  NO
X-ray spectroscopy properties:
SCF XES/XAS/RIXS spectra                ...  NO


-------------
DIPOLE MOMENT
-------------

Method             : SCF
Type of density    : Electron Density
Multiplicity       :   1
Irrep              :   0
Energy             : -1419.4983875966572668 Eh
Relativity type    : 
Basis              : AO
                                X                 Y                 Z
Electronic contribution:     -0.029470029      -0.024553311      -1.124854841
Nuclear contribution   :      0.045410627       0.038238606       1.753899271
                        -----------------------------------------
Total Dipole Moment    :      0.015940598       0.013685295       0.629044430
                        -----------------------------------------
Magnitude (a.u.)       :      0.629395174
Magnitude (Debye)      :      1.599795394



--------------------
Rotational spectrum 
--------------------
 
Rotational constants in cm-1:             0.105982             0.105956             0.054988 
Rotational constants in MHz :          3177.252996          3176.494541          1648.490479 

Dipole components along the rotational axes: 
x,y,z [a.u.] :    -0.000248    -0.000070     0.629395 
x,y,z [Debye]:    -0.000631    -0.000178     1.599795 

 

Dipole moment calculation done in   0.0 sec 

Maximum memory used throughout the entire PROP-calculation: 11.7 MB

--------------------------------
SUGGESTED CITATIONS FOR THIS RUN
--------------------------------

Below you find a list of papers that are relevant to this ORCA run
We neither can nor want to force you to cite these papers, but we appreciate if you do
You receive ORCA, which is the product of decades of hard work by many enthusiastic individuals, for free
The only thing we kindly ask in return is that you cite our papers,
We deeply appreciate it, if you show your appreciation for ORCA by not just citing the generic ORCA reference.

Please note that relegating all ORCA citations to the supporting information does *not* help us.
SI sections are not indexed - citations you put there will not count into any citation statistics
But we need these citations in order to attract the funding resources that allow us to do what we are doing

Therefore, if you are a happy ORCA user, please consider citing a few of the papers listed below in the main body of your paper

In addition to the list printed below, the program has created the file single_point_tzvpd.bibtex that contains the list in bibtex format
You can import this file easily into all common literature databanks and citation aid programs


List of essential papers. We consider these as the minimum necessary citations

  1. Neese,F.
     Software update: the ORCA program system, version 5.0
     WIRES Comput. Molec. Sci., 2022 12(1)e1606
     doi.org/10.1002/wcms.1606

List of papers to cite with high priority. The work reported in these papers was absolutely
necessary for this run to complete.
Our perspective: the developers of density functionals and basis sets usually get cited in chemistry papers
Good! But without the algorithms to do something with them, the functionals or basis sets would not do anything.
Hence, in our opinion, the algorithm design and method developments papers are equally worthy of getting cited

  1. Neese,F.
     An improvement of the resolution of the identity approximation for the formation of the Coulomb matrix
     J. Comp. Chem., 2003 24(14)1740-1747
     doi.org/10.1002/jcc.10318
  2. Garcia-Rates,M.; Neese,F.
     Effect of the Solute Cavity on the Solvation Energy and its Derivatives within the Framework of the Gaussian Charge Scheme
     J. Comput. Chem., 2020 41 922-939
     doi.org/10.1002/jcc.26139
  3. Neese,F.
     The SHARK Integral Generation and Digestion System
     J. Comp. Chem., 2022  1-16
     doi.org/10.1002/jcc.26942

List of suggested additional citations. These are papers that are important in the 'surrounding' of 
of this run, or papers that preceded the highly important papers. If you like your results we are grateful for a citation.

  1. Neese,F.
     The ORCA program system
     WIRES Comput. Molec. Sci., 2012 2(1)73-78
     doi.org/10.1002/wcms.81
  2. Neese,F.
     Software update: the ORCA program system, version 4.0
     WIRES Comput. Molec. Sci., 2018 8(1)1-6
     doi.org/10.1002/wcms.1327
  3. Neese,F.; Wennmohs,F.; Becker,U.; Riplinger,C.
     The ORCA quantum chemistry program package
     J. Chem. Phys., 2020 152 Art. No. L224108
     doi.org/10.1063/5.0004608

List of optional additional citations

  1. Neese,F.
     Approximate second-order SCF convergence for spin unrestricted wavefunctions
     Chem. Phys. Lett., 2000 325(1-3)93-98
     doi.org/10.1016/s0009-2614(00)00662-x

Timings for individual modules:

Sum of individual times          ...        2.955 sec (=   0.049 min)
Startup calculation              ...        0.184 sec (=   0.003 min)   6.2 %
SCF iterations                   ...        2.718 sec (=   0.045 min)  92.0 %
Property calculations            ...        0.052 sec (=   0.001 min)   1.8 %



                             ****ORCA TERMINATED NORMALLY****
TOTAL RUN TIME: 0 days 0 hours 0 minutes 12 seconds 567 msec
