
                                 *****************
                                 * O   R   C   A *
                                 *****************

                                            #,                                       
                                            ###                                      
                                            ####                                     
                                            #####                                    
                                            ######                                   
                                           ########,                                 
                                     ,,################,,,,,                         
                               ,,#################################,,                 
                          ,,##########################################,,             
                       ,#########################################, ''#####,          
                    ,#############################################,,   '####,        
                  ,##################################################,,,,####,       
                ,###########''''           ''''###############################       
              ,#####''   ,,,,##########,,,,          '''####'''          '####       
            ,##' ,,,,###########################,,,                        '##       
           ' ,,###''''                  '''############,,,                           
         ,,##''                                '''############,,,,        ,,,,,,###''
      ,#''                                            '''#######################'''  
     '                                                          ''''####''''         
             ,#######,   #######,   ,#######,      ##                                
            ,#'     '#,  ##    ##  ,#'     '#,    #''#        ,####,   ,####,        
            ##       ##  ##   ,#'  ##            #'  '#       #'       #'  '#        
            ##       ##  #######   ##           ,######,      #####,   #    #        
            '#,     ,#'  ##    ##  '#,     ,#' ,#      #,     #,   #   #,  ,#        
             '#######'   ##     ##  '#######'  #'      '#     '####' # '####'        



                #########################################################
                #                        -***-                          #
                #          Department of theory and spectroscopy        #
                #                                                       #
                #                      Frank Neese                      #
                #                                                       #
                #     Directorship, Architecture, Infrastructure        #
                #                    SHARK, DRIVERS                     #
                #        Core code/Algorithms in most modules           #
                #                                                       #
                #        Max Planck Institute fuer Kohlenforschung      #
                #                Kaiser Wilhelm Platz 1                 #
                #                 D-45470 Muelheim/Ruhr                 #
                #                      Germany                          #
                #                                                       #
                #                  All rights reserved                  #
                #                        -***-                          #
                #########################################################


                         Program Version 6.0.0  -   RELEASE  -


 With contributions from (in alphabetic order):
   Daniel Aravena         : Magnetic Suceptibility
   Michael Atanasov       : Ab Initio Ligand Field Theory (pilot matlab implementation)
   Alexander A. Auer      : GIAO ZORA, VPT2 properties, NMR spectrum
   Ute Becker             : All parallelization in ORCA, NUMFREQ, NUMCALC
   Giovanni Bistoni       : ED, misc. LED, open-shell LED, HFLD
   Martin Brehm           : Molecular dynamics
   Dmytro Bykov           : pre 5.0 version of the SCF Hessian
   Marcos Casanova-Páez   : Triplet and SCS-CIS(D). UHF-(DLPNO)-IP/EA/STEOM-CCSD. UHF-CVS-IP/STEOM-CCSD
   Vijay G. Chilkuri      : MRCI spin determinant printing, contributions to CSF-ICE
   Pauline Colinet        : FMM embedding
   Dipayan Datta          : RHF DLPNO-CCSD density
   Achintya Kumar Dutta   : EOM-CC, STEOM-CC
   Nicolas Foglia         : Exact transition moments, OPA infrastructure, MCD improvements
   Dmitry Ganyushin       : Spin-Orbit,Spin-Spin,Magnetic field MRCI
   Miquel Garcia          : C-PCM and meta-GGA Hessian, CCSD/C-PCM, Gaussian charge scheme
   Tiago L. C. Gouveia    : GS-ROHF, GS-ROCIS
   Yang Guo               : DLPNO-NEVPT2, F12-NEVPT2, CIM, IAO-localization
   Andreas Hansen         : Spin unrestricted coupled pair/coupled cluster methods
   Ingolf Harden          : AUTO-CI MPn and infrastructure 
   Benjamin Helmich-Paris : MC-RPA, TRAH-(SCF,CASSCF), AVAS, COSX integrals, SCF dyn. polar.
   Lee Huntington         : MR-EOM, pCC
   Robert Izsak           : Overlap fitted RIJCOSX, COSX-SCS-MP3, EOM
   Riya Kayal             : Wick's Theorem for AUTO-CI, AUTO-CI UHF-CCSDT
   Emily Kempfer          : AUTO-CI, RHF CISDT and CCSDT
   Christian Kollmar      : KDIIS, OOCD, Brueckner-CCSD(T), CCSD density, CASPT2, CASPT2-K, improved NEVPT2
   Axel Koslowski         : Symmetry handling
   Simone Kossmann        : Meta GGA functionals, TD-DFT gradient, OOMP2, (MP2 Hessian; deprecated post 5.0)
   Lucas Lang             : DCDCAS
   Marvin Lechner         : AUTO-CI (C++ implementation), FIC-MRCC
   Spencer Leger          : CASSCF response
   Dagmar Lenk            : GEPOL surface, SMD, ORCA-2-JSON
   Dimitrios Liakos       : Extrapolation schemes; Compound Job, initial MDCI parallelization
   Dimitrios Manganas     : Further ROCIS development; embedding schemes. LFT, Crystal Embedding
   Dimitrios Pantazis     : SARC Basis sets
   Anastasios Papadopoulos: AUTO-CI, single reference methods and gradients
   Taras Petrenko         : pre 6.0 DFT Hessian and TD-DFT gradient, (ASA, deprecated), ECA, 1-Electron XAS/XES, NRVS
   Peter Pinski           : DLPNO-MP2, DLPNO-MP2 Gradient
   Christoph Reimann      : Effective Core Potentials
   Marius Retegan         : Local ZFS, SOC
   Christoph Riplinger    : Optimizer, TS searches, QM/MM, DLPNO-CCSD(T), (RO)-DLPNO pert. Triples
   Michael Roemelt        : Original ROCIS implementation
   Masaaki Saitow         : Open-shell DLPNO-CCSD energy and density
   Barbara Sandhoefer     : DKH picture change effects
   Kantharuban Sivalingam : CASSCF convergence/infrastructure, NEVPT2 and variants, FIC-MRCI
   Bernardo de Souza      : ESD, SOC TD-DFT
   Georgi Stoychev        : AutoAux, RI-MP2 NMR, DLPNO-MP2 response, X2C
   Van Anh Tran           : RI-MP2 g-tensors
   Willem Van den Heuvel  : Paramagnetic NMR
   Zikuan Wang            : NOTCH, Electric field optimization 
   Frank Wennmohs         : Technical directorship and infrastructure
   Hang Xu                : AUTO-CI-Response properties 


 We gratefully acknowledge several colleagues who have allowed us to
 interface, adapt or use parts of their codes:
   Stefan Grimme, W. Hujo, H. Kruse, P. Pracht,  : VdW corrections, initial TS optimization,
                  C. Bannwarth, S. Ehlert,         DFT functionals, gCP, sTDA/sTD-DF
                  L. Wittmann, M. Mueller
   Ed Valeev, F. Pavosevic, A. Kumar             : LibInt (2-el integral package), F12 methods
   Garnet Chan, S. Sharma, J. Yang, R. Olivares  : DMRG
   Ulf Ekstrom                                   : XCFun DFT Library
   Mihaly Kallay                                 : mrcc  (arbitrary order and MRCC methods)
   Frank Weinhold                                : gennbo (NPA and NBO analysis)
   Simon Mueller                                 : openCOSMO-RS
   Christopher J. Cramer and Donald G. Truhlar   : smd solvation model
   Lars Goerigk                                  : TD-DFT with DH, B97 family of functionals
   V. Asgeirsson, H. Jonsson                     : NEB implementation
   FAccTs GmbH                                   : IRC, NEB, NEB-TS, DLPNO-Multilevel, CI-OPT
                                                   MM, QMMM, 2- and 3-layer-ONIOM, Crystal-QMMM,
                                                   LR-CPCM, SF, NACMEs, symmetry and pop. for TD-DFT,
                                                   nearIR, NL-DFT gradient (VV10), updates on ESD,
                                                   ML-optimized integration grids, MBIS, APM,
                                                   GOAT, DOCKER, SOLVATOR, interface openCOSMO-RS
   S Lehtola, MJT Oliveira, MAL Marques          : LibXC Library
   Liviu Ungur et al                             : ANISO software


 Your calculation uses the libint2 library for the computation of 2-el integrals
 For citations please refer to: http://libint.valeyev.net

 Your ORCA version has been built with support for libXC version: 6.2.2
 For citations please refer to: https://libxc.gitlab.io

 This ORCA versions uses:
   CBLAS   interface :  Fast vector & matrix operations
   LAPACKE interface :  Fast linear algebra routines
   SCALAPACK package :  Parallel linear algebra routines
   Shared memory     :  Shared parallel matrices


NOTE: MaxCore=2000 MB was set to SCF,MP2,MDCI,CIPSI,MRCI and CIS
      => If you want to overwrite this, your respective input block should be placed after the MaxCore statement


***************************************
The coordinates will be read from file: ethanol_c000.xyz
***************************************


Warning: RI is on but no J-basis has been assigned. Assigning Def2/J (nothing to worry about!)
================================================================================

----- Orbital basis set information -----
Your calculation utilizes the basis: def2-TZVP
   F. Weigend and R. Ahlrichs, Phys. Chem. Chem. Phys. 7, 3297 (2005).

----- AuxJ basis set information -----
Your calculation utilizes the auxiliary basis: def2/J
   F. Weigend, Phys. Chem. Chem. Phys. 8, 1057 (2006).

================================================================================
                                        WARNINGS
                       Please study these warnings very carefully!
================================================================================


WARNING: Geometry Optimization
  ===> : Switching off AutoStart
         For restart on a previous wavefunction, please use MOREAD



***************************************
The coordinates will be read from file: geo_opt_tzvp.xyz
***************************************


Warning: RI is on but no J-basis has been assigned. Assigning Def2/J (nothing to worry about!)
================================================================================

----- Orbital basis set information -----
Your calculation utilizes the basis: def2-TZVPD
   F. Weigend and R. Ahlrichs, Phys. Chem. Chem. Phys. 7, 3297 (2005).
   D. Rappoport and F. Furche, J. Chem. Phys. 133, 134105 (2010)
   D. Rappoport, J. Chem. Phys. 155, 124102 (2021).

----- AuxJ basis set information -----
Your calculation utilizes the auxiliary basis: def2/J
   F. Weigend, Phys. Chem. Chem. Phys. 8, 1057 (2006).

================================================================================
                                        WARNINGS
                       Please study these warnings very carefully!
================================================================================


================================================================================
                                       INPUT FILE
================================================================================
NAME = input.dat
|  1> %MaxCore 2000
|  2> 
|  3> %base "geo_opt_tzvp"
|  4> 
|  5> %cpcm
|  6> radius[1]  1.3
|  7> radius[2]  1.601
|  8> radius[5]  2.048
|  9> radius[6]  2.0
| 10> radius[7]  1.83
| 11> radius[8]  1.72
| 12> radius[9]  1.72
| 13> radius[10]  1.771
| 14> radius[13]  2.152
| 15> radius[14]  2.2
| 16> radius[15]  2.106
| 17> radius[16]  2.16
| 18> radius[17]  2.05
| 19> radius[18]  2.184
| 20> radius[22]  2.261
| 21> radius[26]  2.195
| 22> radius[27]  2.153
| 23> radius[31]  2.172
| 24> radius[32]  2.7
| 25> radius[33]  2.148
| 26> radius[34]  2.2
| 27> radius[35]  2.16
| 28> radius[36]  2.354
| 29> radius[49]  2.245
| 30> radius[50]  2.55
| 31> radius[51]  2.402
| 32> radius[53]  2.32
| 33> radius[54]  2.524
| 34> radius[80]  1.978
| 35> radius[82]  2.36
| 36> radius[86]  2.573
| 37> cut_area 0.03571064825863687
| 38> end
| 39> 
| 40> ! OPT CPCM BP86 def2-TZVP
| 41> 
| 42> * xyzfile 0 1 ethanol_c000.xyz
| 43> 
| 44> $new_job
| 45> 
| 46> ! CPCM BP86 def2-TZVPD SP
| 47> 
| 48> %base "single_point_tzvpd"
| 49> 
| 50> * xyzfile 0 1 geo_opt_tzvp.xyz
| 51> 
| 52>                          ****END OF INPUT****
================================================================================


                 $$$$$$$$$$$$$$$$$$$$$$$$$$$$$$$$$$$$$$$$$$$$$$ 
                 $ THERE ARE  2 JOBS TO BE PROCESSED THIS RUN $
                 $$$$$$$$$$$$$$$$$$$$$$$$$$$$$$$$$$$$$$$$$$$$$$ 




                 $$$$$$$$$$$$$$$$  JOB NUMBER  1 $$$$$$$$$$$$$$


                       *****************************
                       * Geometry Optimization Run *
                       *****************************

Geometry optimization settings:
Update method            Update   .... BFGS
Choice of coordinates    CoordSys .... (2022) Redundant Internals
Initial Hessian          InHess   .... Almloef's Model
Max. no of cycles        MaxIter  .... 50

Convergence Tolerances:
Energy Change            TolE     ....  5.0000e-06 Eh
Max. Gradient            TolMAXG  ....  3.0000e-04 Eh/bohr
RMS Gradient             TolRMSG  ....  1.0000e-04 Eh/bohr
Max. Displacement        TolMAXD  ....  4.0000e-03 bohr
RMS Displacement         TolRMSD  ....  2.0000e-03 bohr
Strict Convergence                .... False

------------------------------------------------------------------------------
                        ORCA OPTIMIZATION COORDINATE SETUP
------------------------------------------------------------------------------

The optimization will be done in redundant internal coordinates (2022)
Making redundant internal coordinates   ...  (2022 redundants) done
Evaluating the initial hessian          ...  (Almloef) done
Evaluating the coordinates              ...  done
Calculating the B-matrix                .... done
Calculating the G-matrix                .... done
Diagonalizing the G-matrix              .... done
The first mode is                       ....    9
The number of degrees of freedom        ....   21

    -----------------------------------------------------------------
                    Redundant Internal Coordinates


    -----------------------------------------------------------------
         Definition                    Initial Value    Approx d2E/dq
    -----------------------------------------------------------------
      1. B(C   1,C   0)                  1.5174         0.391272   
      2. B(O   2,C   1)                  1.4476         0.452887   
      3. B(H   3,C   0)                  1.0999         0.347242   
      4. B(H   4,C   0)                  1.0995         0.347729   
      5. B(H   5,C   0)                  1.0999         0.347218   
      6. B(H   6,C   1)                  1.1042         0.341821   
      7. B(H   7,C   1)                  1.1042         0.341758   
      8. B(H   8,O   2)                  0.9746         0.492825   
      9. A(C   1,C   0,H   5)          110.9058         0.324844   
     10. A(H   3,C   0,H   4)          108.1955         0.287608   
     11. A(H   3,C   0,H   5)          108.5421         0.287541   
     12. A(C   1,C   0,H   4)          109.9828         0.324923   
     13. A(C   1,C   0,H   3)          110.9392         0.324848   
     14. A(H   4,C   0,H   5)          108.1859         0.287604   
     15. A(H   6,C   1,H   7)          107.8056         0.286127   
     16. A(C   0,C   1,O   2)          108.4157         0.376206   
     17. A(O   2,C   1,H   7)          109.9409         0.329909   
     18. A(C   0,C   1,H   7)          110.3526         0.324000   
     19. A(O   2,C   1,H   6)          109.9572         0.329920   
     20. A(C   0,C   1,H   6)          110.3691         0.324010   
     21. A(C   1,O   2,H   8)          107.2214         0.347669   
     22. D(O   2,C   1,C   0,H   4)    179.8326         0.012168   
     23. D(H   6,C   1,C   0,H   3)     59.9837         0.012168   
     24. D(O   2,C   1,C   0,H   3)    -60.5043         0.012168   
     25. D(H   6,C   1,C   0,H   4)    -59.6795         0.012168   
     26. D(H   6,C   1,C   0,H   5)   -179.3095         0.012168   
     27. D(O   2,C   1,C   0,H   5)     60.2025         0.012168   
     28. D(H   8,O   2,C   1,C   0)    179.7340         0.016154   
     29. D(H   8,O   2,C   1,H   7)    -59.5524         0.016154   
     30. D(H   8,O   2,C   1,H   6)     58.9904         0.016154   
    -----------------------------------------------------------------

Number of atoms                         .... 9
Number of degrees of freedom            .... 30


         *************************************************************
         *                GEOMETRY OPTIMIZATION CYCLE   1            *
         *************************************************************
---------------------------------
CARTESIAN COORDINATES (ANGSTROEM)
---------------------------------
  C     -1.021596   -0.092988    0.015639
  C      0.440334    0.313486    0.008902
  O      1.247872   -0.885106   -0.073464
  H     -1.283002   -0.635455   -0.904780
  H     -1.659616    0.800110    0.080763
  H     -1.245537   -0.738453    0.877637
  H      0.652514    0.970809   -0.852562
  H      0.687926    0.871920    0.928781
  H      2.181106   -0.604322   -0.080916

----------------------------
CARTESIAN COORDINATES (A.U.)
----------------------------
  NO LB      ZA    FRAG     MASS         X           Y           Z
   0 C     6.0000    0    12.011   -1.930536   -0.175723    0.029554
   1 C     6.0000    0    12.011    0.832111    0.592403    0.016823
   2 O     8.0000    0    15.999    2.358136   -1.672608   -0.138828
   3 H     1.0000    0     1.008   -2.424523   -1.200835   -1.709786
   4 H     1.0000    0     1.008   -3.136219    1.511988    0.152619
   5 H     1.0000    0     1.008   -2.353724   -1.395475    1.658494
   6 H     1.0000    0     1.008    1.233072    1.834563   -1.611109
   7 H     1.0000    0     1.008    1.299991    1.647690    1.755141
   8 H     1.0000    0     1.008    4.121693   -1.142004   -0.152910

--------------------------------
INTERNAL COORDINATES (ANGSTROEM)
--------------------------------
 C      0   0   0     0.000000000000     0.00000000     0.00000000
 C      1   0   0     1.517400879534     0.00000000     0.00000000
 O      2   1   0     1.447593030973   108.41574102     0.00000000
 H      1   2   3     1.099897265652   110.93919092   299.49574704
 H      1   2   3     1.099515889199   109.98278743   179.83255813
 H      1   2   3     1.099916328765   110.90582559    60.20253135
 H      2   1   3     1.104180611569   110.36909484   120.48797287
 H      2   1   3     1.104231034991   110.35257691   239.54189613
 H      3   2   1     0.974587905939   107.22139577   179.73401021

---------------------------
INTERNAL COORDINATES (A.U.)
---------------------------
 C      0   0   0     0.000000000000     0.00000000     0.00000000
 C      1   0   0     2.867472097691     0.00000000     0.00000000
 O      2   1   0     2.735554381913   108.41574102     0.00000000
 H      1   2   3     2.078504607532   110.93919092   299.49574704
 H      1   2   3     2.077783910480   109.98278743   179.83255813
 H      1   2   3     2.078540631594   110.90582559    60.20253135
 H      2   1   3     2.086598958251   110.36909484   120.48797287
 H      2   1   3     2.086694244710   110.35257691   239.54189613
 H      3   2   1     1.841704235657   107.22139577   179.73401021

---------------------
BASIS SET INFORMATION
---------------------
There are 3 groups of distinct atoms

 Group   1 Type C   : 11s6p2d1f contracted to 5s3p2d1f pattern {62111/411/11/1}
 Group   2 Type O   : 11s6p2d1f contracted to 5s3p2d1f pattern {62111/411/11/1}
 Group   3 Type H   : 5s1p contracted to 3s1p pattern {311/1}

Atom   0C    basis set group =>   1
Atom   1C    basis set group =>   1
Atom   2O    basis set group =>   2
Atom   3H    basis set group =>   3
Atom   4H    basis set group =>   3
Atom   5H    basis set group =>   3
Atom   6H    basis set group =>   3
Atom   7H    basis set group =>   3
Atom   8H    basis set group =>   3
---------------------------------
AUXILIARY/J BASIS SET INFORMATION
---------------------------------
There are 3 groups of distinct atoms

 Group   1 Type C   : 12s5p4d2f1g contracted to 6s4p3d1f1g pattern {711111/2111/211/2/1}
 Group   2 Type O   : 12s5p4d2f1g contracted to 6s4p3d1f1g pattern {711111/2111/211/2/1}
 Group   3 Type H   : 5s2p1d contracted to 3s1p1d pattern {311/2/1}

Atom   0C    basis set group =>   1
Atom   1C    basis set group =>   1
Atom   2O    basis set group =>   2
Atom   3H    basis set group =>   3
Atom   4H    basis set group =>   3
Atom   5H    basis set group =>   3
Atom   6H    basis set group =>   3
Atom   7H    basis set group =>   3
Atom   8H    basis set group =>   3
------------------------------------------------------------------------------
                             ORCA STARTUP CALCULATIONS
                           -- RI-GTO INTEGRALS CHOSEN --
------------------------------------------------------------------------------
------------------------------------------------------------------------------
                   ___                                                        
                  /   \      - P O W E R E D   B Y -                         
                 /     \                                                     
                 |  |  |   _    _      __       _____    __    __             
                 |  |  |  | |  | |    /  \     |  _  \  |  |  /  |          
                  \  \/   | |  | |   /    \    | | | |  |  | /  /          
                 / \  \   | |__| |  /  /\  \   | |_| |  |  |/  /          
                |  |  |   |  __  | /  /__\  \  |    /   |      \           
                |  |  |   | |  | | |   __   |  |    \   |  |\   \          
                \     /   | |  | | |  |  |  |  | |\  \  |  | \   \       
                 \___/    |_|  |_| |__|  |__|  |_| \__\ |__|  \__/        
                                                                              
                      - O R C A' S   B I G   F R I E N D -                    
                                      &                                       
                       - I N T E G R A L  F E E D E R -                       
                                                                              
 v1 FN, 2020, v2 2021, v3 2022-2024                                           
------------------------------------------------------------------------------


----------------------
SHARK INTEGRAL PACKAGE
----------------------

Number of atoms                             ...      9
Number of basis functions                   ...    129
Number of shells                            ...     57
Maximum angular momentum                    ...      3
Integral batch strategy                     ... SHARK/LIBINT Hybrid
RI-J (if used) integral strategy            ... SPLIT-RIJ (Revised 2003 algorithm where possible)
Printlevel                                  ...      1
Contraction scheme used                     ... SEGMENTED contraction
Prescreening option                         ... SCHWARTZ
   Thresh                                   ... 2.500e-11
   Tcut                                     ... 2.500e-12
   Tpresel                                  ... 2.500e-12 
Coulomb Range Separation                    ... NOT USED
Exchange Range Separation                   ... NOT USED
Multipole approximations                    ... NOT USED
Finite Nucleus Model                        ... NOT USED
CABS basis                                  ... NOT available
Auxiliary Coulomb fitting basis             ... AVAILABLE
   # of basis functions in Aux-J            ...    213
   # of shells in Aux-J                     ...     75
   Maximum angular momentum in Aux-J        ...      4
Auxiliary J/K fitting basis                 ... NOT available
Auxiliary Correlation fitting basis         ... NOT available
Auxiliary 'external' fitting basis          ... NOT available

Checking pre-screening integrals            ... done (  0.0 sec) Dimension = 57
Check shell pair data                       ... done (  0.0 sec)
Shell pair information
Shell pair cut-off parameter TPreSel        ...   2.5e-12
Total number of shell pairs                 ...      1653
Shell pairs after pre-screening             ...      1633
Total number of primitive shell pairs       ...      4740
Primitive shell pairs kept                  ...      3964
          la=0 lb=0:    547 shell pairs
          la=1 lb=0:    491 shell pairs
          la=1 lb=1:    120 shell pairs
          la=2 lb=0:    196 shell pairs
          la=2 lb=1:     90 shell pairs
          la=2 lb=2:     21 shell pairs
          la=3 lb=0:     99 shell pairs
          la=3 lb=1:     45 shell pairs
          la=3 lb=2:     18 shell pairs
          la=3 lb=3:      6 shell pairs

Calculating one electron integrals          ... done (  0.0 sec)
Calculating RI/J V-Matrix + Cholesky decomp.... done (  0.0 sec)
Calculating Nuclear repulsion               ... done (  0.0 sec) ENN=     81.053796242739 Eh

Diagonalization of the overlap matrix:
Smallest eigenvalue                        ... 5.347e-04
Time for diagonalization                   ...    0.001 sec
Threshold for overlap eigenvalues          ... 1.000e-07
Number of eigenvalues below threshold      ... 0
Time for construction of square roots      ...    0.000 sec
Total time needed                          ...    0.001 sec

-------------------
DFT GRID GENERATION
-------------------

General Integration Accuracy     IntAcc      ... 4.388
Radial Grid Type                 RadialGrid  ... OptM3 with GC (2021)
Angular Grid (max. ang.)         AngularGrid ... 4 (Lebedev-302)
Angular grid pruning method      GridPruning ... 4 (adaptive)
Weight generation scheme         WeightScheme... mBecke (2022)
Basis function cutoff            BFCut       ... 1.0000e-11
Integration weight cutoff        WCut        ... 1.0000e-14
Partially contracted basis set               ... off
Rotationally invariant grid construction     ... off
Angular grids for H and He will be reduced by one unit

Total number of grid points                  ...    37736
Total number of batches                      ...      593
Average number of points per batch           ...       63
Average number of grid points per atom       ...     4193
Initializing property integral containers    ... done (  0.0 sec)

SHARK setup successfully completed in   0.1 seconds

Maximum memory used throughout the entire STARTUP-calculation: 18.4 MB
-------------------------------------------------------------------------------
                                 ORCA GUESS
                   Start orbitals & Density for SCF / CASSCF
-------------------------------------------------------------------------------

------------
SCF SETTINGS
------------
Hamiltonian:
 Density Functional     Method          .... DFT(GTOs)
 Exchange Functional    Exchange        .... B88
   X-Alpha parameter    XAlpha          ....  0.666667
   Becke's b parameter  XBeta           ....  0.004200
 Correlation Functional Correlation     .... P86
 LDA part of GGA corr.  LDAOpt          .... PW91-LDA
 Gradients option       PostSCFGGA      .... off
   NL short-range parameter             ....  4.400000
 RI-approximation to the Coulomb term is turned on
   Number of AuxJ basis functions       .... 213


General Settings:
 Integral files         IntName         .... geo_opt_tzvp
 Hartree-Fock type      HFTyp           .... RHF
 Total Charge           Charge          ....    0
 Multiplicity           Mult            ....    1
 Number of Electrons    NEL             ....   26
 Basis Dimension        Dim             ....  129
 Nuclear Repulsion      ENuc            ....     81.0537962427 Eh

Convergence Acceleration:
 AO-DIIS                CNVDIIS         .... on
   Start iteration      DIISMaxIt       ....    12
   Startup error        DIISStart       ....  0.200000
   # of expansion vecs  DIISMaxEq       ....     5
   Bias factor          DIISBfac        ....   1.050
   Max. coefficient     DIISMaxC        ....  10.000
 MO-DIIS                CNVKDIIS        .... off
 Trust-Rad. Augm. Hess. CNVTRAH         .... auto
   Auto Start mean grad. ratio tolernc. ....  1.125000
   Auto Start start iteration           ....    50
   Auto Start num. interpolation iter.  ....    10
   Max. Number of Micro iterations      ....    24
   Max. Number of Macro iterations      .... Maxiter - #DIIS iter
   Number of Davidson start vectors     ....     2
   Converg. threshold    (grad. norm)   ....   1.000e-05
   Grad. Scal. Fac. for Micro threshold ....   0.100
   Minimum threshold for Micro iter.    ....   1.000e-02
   NR start threshold (gradient norm)   ....   1.000e-04
   Initial trust radius                 ....   0.400
   Minimum AH scaling param. (alpha)    ....   1.000
   Maximum AH scaling param. (alpha)    .... 1000.000
   Quad. conv. algorithm                .... NR
   White noise on init. David. guess    .... on
   Maximum white noise                  ....   0.010
   Pseudo random numbers                .... off
   Inactive MOs                         .... canonical
   Orbital update algorithm             .... Taylor
   Preconditioner                       .... Diag
   Full preconditioner red. dimension   ....   250
 SOSCF                  CNVSOSCF        .... on
   Start iteration      SOSCFMaxIt      ....   150
   Startup grad/error   SOSCFStart      ....  0.003300
   Hessian update       SOSCFHessUp     .... L-BFGS
 Level Shifting         CNVShift        .... on
   Level shift para.    LevelShift      ....    0.2500
   Turn off err/grad.   ShiftErr        ....    0.0010
 Zerner damping         CNVZerner       .... off
 Static damping         CNVDamp         .... on
   Fraction old density DampFac         ....    0.7000
   Max. Damping (<1)    DampMax         ....    0.9800
   Min. Damping (>=0)   DampMin         ....    0.0000
   Turn off err/grad.   DampErr         ....    0.1000

SCF Procedure:
 Maximum # iterations   MaxIter         ....   125
 SCF integral mode      SCFMode         .... Direct
   Integral package                     .... SHARK and LIBINT hybrid scheme
 Reset frequency        DirectResetFreq ....    20
 Integral Threshold     Thresh          ....  2.500e-11 Eh
 Primitive CutOff       TCut            ....  2.500e-12 Eh

Convergence Tolerance:
 Convergence Check Mode ConvCheckMode   .... Total+1el-Energy
 Convergence forced     ConvForced      .... 0
 Energy Change          TolE            ....  1.000e-08 Eh
 1-El. energy change                    ....  1.000e-05 Eh
 Orbital Gradient       TolG            ....  1.000e-05
 Orbital Rotation angle TolX            ....  1.000e-05
 DIIS Error             TolErr          ....  5.000e-07

------------------------------
INITIAL GUESS: MODEL POTENTIAL
------------------------------
Loading Hartree-Fock densities                     ... done
Calculating cut-offs                               ... done
Initializing the effective Hamiltonian             ... done
Setting up the integral package (SHARK)            ... done
Starting the Coulomb interaction                   ... done (   0.0 sec)
Making the grid                                    ... done (   0.0 sec)
Mapping shells                                     ... done
Starting the XC term evaluation                    ... done (   0.0 sec)
  promolecular density results
     # of electrons  =     25.997086941
     EX              =    -20.236910273
     EC              =     -0.917108702
     EX+EC           =    -21.154018975
Transforming the Hamiltonian                       ... done (   0.0 sec)
Diagonalizing the Hamiltonian                      ... done (   0.0 sec)
Back transforming the eigenvectors                 ... done (   0.0 sec)
Now organizing SCF variables                       ... done
                      ------------------
                      INITIAL GUESS DONE (   0.1 sec)
                      ------------------
             **** ENERGY FILE WAS UPDATED (geo_opt_tzvp.en.tmp) ****
Finished Guess after   0.1 sec
Maximum memory used throughout the entire GUESS-calculation: 10.6 MB

-------------------------------------------------------------------------------------------
                                      ORCA LEAN-SCF
                              memory conserving SCF solver
-------------------------------------------------------------------------------------------

--------------------
CPCM SOLVATION MODEL
--------------------
CPCM parameters:
  Epsilon                                         ...     INFINITY
  Refrac                                          ...       1.3300
  Rsolv                                           ...       1.3000
  Surface type                                    ... GAUSSIAN VDW
  Discretization scheme                           ... Constant charge density
    Threshold for H atoms                         ...       5.0000 (charges/Ang^2)
    Threshold for non-H atoms                     ...       5.0000 (charges/Ang^2)
  Epsilon function type                           ...         CPCM
Solvent:                                          ... CONDUCTOR
Radii:
  Scheme                                          ... Element-dependent radii
  Radius for C  used is    3.7795 Bohr (=   2.0000 Ang.)
  Radius for O  used is    3.2503 Bohr (=   1.7200 Ang.)
  Radius for H  used is    2.4566 Bohr (=   1.3000 Ang.)
Calculating surface                               ...        done! (  0.0s)
Cavity surface points                             ...          609
Cavity Volume                                     ...     461.2971
Cavity Surface-area                               ...     319.5541
Calculating surface distance matrix               ...        done! (  0.0s)
Performing Cholesky decomposition & store         ...        done! (  0.0s)
Overall time for CPCM initialization              ...                 0.0s

----------------------------------------D-I-I-S--------------------------------------------
Iteration    Energy (Eh)           Delta-E    RMSDP     MaxDP     DIISErr   Damp  Time(sec)
-------------------------------------------------------------------------------------------
               ***  Starting incremental Fock matrix formation  ***
    1    -154.9893940322913295     0.00e+00  2.57e-03  5.39e-02  2.54e-01  0.700   0.2
    2    -155.0514587742056278    -6.21e-02  1.79e-03  3.01e-02  8.87e-02  0.700   0.2
                               ***Turning on AO-DIIS***
    3    -155.0709693295152647    -1.95e-02  6.64e-04  1.21e-02  2.38e-02  0.700   0.2
    4    -155.0833294584705868    -1.24e-02  8.72e-04  1.45e-02  1.09e-02  0.000   0.2
    5    -155.1122372955580317    -2.89e-02  3.40e-04  5.81e-03  1.07e-02  0.000   0.2
                              *** Initializing SOSCF ***
---------------------------------------S-O-S-C-F--------------------------------------
Iteration    Energy (Eh)           Delta-E    RMSDP     MaxDP     MaxGrad    Time(sec)
--------------------------------------------------------------------------------------
    6    -155.1125727248734165    -3.35e-04  1.36e-04  2.10e-03  2.83e-03     0.2
               *** Restarting incremental Fock matrix formation ***
    7    -155.1125990425924783    -2.63e-05  1.14e-04  1.88e-03  3.46e-04     0.2
    8    -155.1125976121014673     1.43e-06  2.68e-05  6.21e-04  6.41e-04     0.2
    9    -155.1126015194233787    -3.91e-06  1.55e-05  2.38e-04  7.22e-05     0.2
   10    -155.1126014883292896     3.11e-08  4.94e-06  9.78e-05  7.96e-05     0.2
   11    -155.1126016424682348    -1.54e-07  3.00e-06  4.54e-05  1.43e-05     0.2
   12    -155.1126016439116029    -1.44e-09  1.10e-06  1.65e-05  7.12e-06     0.2
                 **** Energy Check signals convergence ****

               *****************************************************
               *                     SUCCESS                       *
               *           SCF CONVERGED AFTER  12 CYCLES          *
               *****************************************************

             **** ENERGY FILE WAS UPDATED (geo_opt_tzvp.en.tmp) ****

----------------
TOTAL SCF ENERGY
----------------

Total Energy       :       -155.11260164391160 Eh           -4220.82847 eV

Components:
Nuclear Repulsion  :         81.05379624273912 Eh            2205.58593 eV
Electronic Energy  :       -236.15669869031416 Eh           -6426.15047 eV
One Electron Energy:       -370.52646719137448 Eh          -10082.53776 eV
Two Electron Energy:        134.36976850106032 Eh            3656.38729 eV
CPCM Dielectric    :         -0.00969919633656 Eh              -0.26393 eV

Virial components:
Potential Energy   :       -309.45484323606979 Eh           -8420.69438 eV
Kinetic Energy     :        154.34224159215822 Eh            4199.86591 eV
Virial Ratio       :          2.00499124571346

DFT components:
N(Alpha)           :       13.000003517879 electrons
N(Beta)            :       13.000003517879 electrons
N(Total)           :       26.000007035758 electrons
E(X)               :      -20.759094441886 Eh       
E(C)               :       -0.920422670032 Eh       
E(XC)              :      -21.679517111919 Eh       

CPCM Solvation Model Properties:
Surface-charge          :         -0.02268102816561
Corrected charge        :          0.00000000000000
Outlying charge corr.   :          0.00005183795408 Eh               0.00141 eV
Free-energy (cav+disp)  :  This term is not implemented in the current solvation scheme

---------------
SCF CONVERGENCE
---------------

  Last Energy change         ...    1.4434e-09  Tolerance :   1.0000e-08
  Last MAX-Density change    ...    1.6518e-05  Tolerance :   1.0000e-07
  Last RMS-Density change    ...    1.0958e-06  Tolerance :   5.0000e-09
  Last DIIS Error            ...    2.8332e-03  Tolerance :   5.0000e-07
  Last Orbital Gradient      ...    7.1205e-06  Tolerance :   1.0000e-05
  Last Orbital Rotation      ...    1.1075e-05  Tolerance :   1.0000e-05


----------------
ORBITAL ENERGIES
----------------

  NO   OCC          E(Eh)            E(eV) 
   0   2.0000     -18.766359      -510.6586 
   1   2.0000      -9.937145      -270.4035 
   2   2.0000      -9.883645      -268.9476 
   3   2.0000      -0.927511       -25.2389 
   4   2.0000      -0.677947       -18.4479 
   5   2.0000      -0.547010       -14.8849 
   6   2.0000      -0.461562       -12.5598 
   7   2.0000      -0.412461       -11.2236 
   8   2.0000      -0.359398        -9.7797 
   9   2.0000      -0.337534        -9.1848 
  10   2.0000      -0.320449        -8.7199 
  11   2.0000      -0.294840        -8.0230 
  12   2.0000      -0.231307        -6.2942 
  13   0.0000       0.024824         0.6755 
  14   0.0000       0.050112         1.3636 
  15   0.0000       0.082189         2.2365 
  16   0.0000       0.088983         2.4214 
  17   0.0000       0.103425         2.8143 
  18   0.0000       0.122077         3.3219 
  19   0.0000       0.125310         3.4099 
  20   0.0000       0.152191         4.1413 
  21   0.0000       0.196906         5.3581 
  22   0.0000       0.220707         6.0057 
  23   0.0000       0.239989         6.5304 
*Only the first 10 virtual orbitals were printed.

                    ********************************
                    * MULLIKEN POPULATION ANALYSIS *
                    ********************************

-----------------------
MULLIKEN ATOMIC CHARGES
-----------------------
   0 C :   -0.352810
   1 C :   -0.055049
   2 O :   -0.521200
   3 H :    0.120729
   4 H :    0.128377
   5 H :    0.120748
   6 H :    0.106856
   7 H :    0.106573
   8 H :    0.345776
Sum of atomic charges:   -0.0000000

--------------------------------
MULLIKEN REDUCED ORBITAL CHARGES
--------------------------------
  0 C s       :     3.268443  s :     3.268443
      pz      :     1.053841  p :     3.036327
      px      :     0.936374
      py      :     1.046113
      dz2     :     0.002676  d :     0.044698
      dxz     :     0.016587
      dyz     :     0.008730
      dx2y2   :     0.004082
      dxy     :     0.012623
      f0      :     0.000384  f :     0.003341
      f+1     :     0.000148
      f-1     :     0.000841
      f+2     :     0.000433
      f-2     :     0.000105
      f+3     :     0.000873
      f-3     :     0.000557

  1 C s       :     3.265835  s :     3.265835
      pz      :     1.036655  p :     2.663551
      px      :     0.850831
      py      :     0.776065
      dz2     :     0.004760  d :     0.116521
      dxz     :     0.026862
      dyz     :     0.025363
      dx2y2   :     0.030506
      dxy     :     0.029030
      f0      :     0.001227  f :     0.009142
      f+1     :     0.000386
      f-1     :     0.001274
      f+2     :     0.000594
      f-2     :     0.001366
      f+3     :     0.001915
      f-3     :     0.002380

  2 O s       :     3.805723  s :     3.805723
      pz      :     1.902072  p :     4.687483
      px      :     1.286222
      py      :     1.499190
      dz2     :     0.004003  d :     0.026558
      dxz     :     0.001169
      dyz     :     0.004092
      dx2y2   :     0.009575
      dxy     :     0.007720
      f0      :     0.000166  f :     0.001435
      f+1     :     0.000396
      f-1     :     0.000215
      f+2     :     0.000057
      f-2     :     0.000076
      f+3     :     0.000222
      f-3     :     0.000305

  3 H s       :     0.858562  s :     0.858562
      pz      :     0.009425  p :     0.020709
      px      :     0.004984
      py      :     0.006300

  4 H s       :     0.850864  s :     0.850864
      pz      :     0.004528  p :     0.020758
      px      :     0.007253
      py      :     0.008977

  5 H s       :     0.858545  s :     0.858545
      pz      :     0.008815  p :     0.020707
      px      :     0.004847
      py      :     0.007045

  6 H s       :     0.873448  s :     0.873448
      pz      :     0.008881  p :     0.019697
      px      :     0.004192
      py      :     0.006624

  7 H s       :     0.873718  s :     0.873718
      pz      :     0.009630  p :     0.019709
      px      :     0.004294
      py      :     0.005786

  8 H s       :     0.609678  s :     0.609678
      pz      :     0.015747  p :     0.044546
      px      :     0.018188
      py      :     0.010610



                     *******************************
                     * LOEWDIN POPULATION ANALYSIS *
                     *******************************

----------------------
LOEWDIN ATOMIC CHARGES
----------------------
   0 C :   -0.330515
   1 C :   -0.373630
   2 O :   -0.098314
   3 H :    0.122685
   4 H :    0.131342
   5 H :    0.122731
   6 H :    0.118538
   7 H :    0.118471
   8 H :    0.188692

-------------------------------
LOEWDIN REDUCED ORBITAL CHARGES
-------------------------------
  0 C s       :     2.848838  s :     2.848838
      pz      :     1.077997  p :     3.209102
      px      :     1.056623
      py      :     1.074482
      dz2     :     0.034525  d :     0.247995
      dxz     :     0.055033
      dyz     :     0.049934
      dx2y2   :     0.038689
      dxy     :     0.069814
      f0      :     0.002447  f :     0.024579
      f+1     :     0.003295
      f-1     :     0.003171
      f+2     :     0.004657
      f-2     :     0.001855
      f+3     :     0.005332
      f-3     :     0.003822

  1 C s       :     2.826493  s :     2.826493
      pz      :     1.064767  p :     2.951758
      px      :     0.990001
      py      :     0.896991
      dz2     :     0.052669  d :     0.529477
      dxz     :     0.076319
      dyz     :     0.145452
      dx2y2   :     0.128460
      dxy     :     0.126577
      f0      :     0.007643  f :     0.065902
      f+1     :     0.005235
      f-1     :     0.006440
      f+2     :     0.005155
      f-2     :     0.011170
      f+3     :     0.015685
      f-3     :     0.014573

  2 O s       :     3.389802  s :     3.389802
      pz      :     1.807359  p :     4.641375
      px      :     1.288624
      py      :     1.545392
      dz2     :     0.008021  d :     0.063085
      dxz     :     0.003532
      dyz     :     0.009340
      dx2y2   :     0.025287
      dxy     :     0.016905
      f0      :     0.000328  f :     0.004052
      f+1     :     0.000650
      f-1     :     0.000332
      f+2     :     0.000111
      f-2     :     0.000422
      f+3     :     0.000770
      f-3     :     0.001439

  3 H s       :     0.816826  s :     0.816826
      pz      :     0.028386  p :     0.060489
      px      :     0.013677
      py      :     0.018426

  4 H s       :     0.808243  s :     0.808243
      pz      :     0.013493  p :     0.060415
      px      :     0.019406
      py      :     0.027516

  5 H s       :     0.816782  s :     0.816782
      pz      :     0.026498  p :     0.060487
      px      :     0.013373
      py      :     0.020616

  6 H s       :     0.823597  s :     0.823597
      pz      :     0.027248  p :     0.057865
      px      :     0.011948
      py      :     0.018668

  7 H s       :     0.823677  s :     0.823677
      pz      :     0.029448  p :     0.057852
      px      :     0.012172
      py      :     0.016232

  8 H s       :     0.658592  s :     0.658592
      pz      :     0.043469  p :     0.152716
      px      :     0.072182
      py      :     0.037065



                      *****************************
                      * MAYER POPULATION ANALYSIS *
                      *****************************

  NA   - Mulliken gross atomic population
  ZA   - Total nuclear charge
  QA   - Mulliken gross atomic charge
  VA   - Mayer's total valence
  BVA  - Mayer's bonded valence
  FA   - Mayer's free valence

  ATOM       NA         ZA         QA         VA         BVA        FA
  0 C      6.3528     6.0000    -0.3528     3.8278     3.8278    -0.0000
  1 C      6.0550     6.0000    -0.0550     3.9408     3.9408     0.0000
  2 O      8.5212     8.0000    -0.5212     1.8820     1.8820    -0.0000
  3 H      0.8793     1.0000     0.1207     0.9738     0.9738    -0.0000
  4 H      0.8716     1.0000     0.1284     0.9736     0.9736    -0.0000
  5 H      0.8793     1.0000     0.1207     0.9737     0.9737    -0.0000
  6 H      0.8931     1.0000     0.1069     0.9485     0.9485    -0.0000
  7 H      0.8934     1.0000     0.1066     0.9485     0.9485    -0.0000
  8 H      0.6542     1.0000     0.3458     0.8924     0.8924    -0.0000

  Mayer bond orders larger than 0.100000
B(  0-C ,  1-C ) :   0.9914 B(  0-C ,  3-H ) :   0.9613 B(  0-C ,  4-H ) :   0.9565 
B(  0-C ,  5-H ) :   0.9613 B(  1-C ,  2-O ) :   1.0177 B(  1-C ,  6-H ) :   0.9570 
B(  1-C ,  7-H ) :   0.9570 B(  2-O ,  8-H ) :   0.8740 

-------
TIMINGS
-------

Total SCF time: 0 days 0 hours 0 min 2 sec 

Total time                  ....       2.387 sec
Sum of individual times     ....       2.378 sec  ( 99.6%)

SCF preparation             ....       0.017 sec  (  0.7%)
Fock matrix formation       ....       2.328 sec  ( 97.5%)
  Startup                   ....       0.002 sec  (  0.1% of F)
  Split-RI-J                ....       0.307 sec  ( 13.2% of F)
  XC integration            ....       1.599 sec  ( 68.7% of F)
    Basis function eval.    ....       0.570 sec  ( 35.6% of XC)
    Density eval.           ....       0.288 sec  ( 18.0% of XC)
    XC-Functional eval.     ....       0.073 sec  (  4.6% of XC)
    XC-Potential eval.      ....       0.574 sec  ( 35.9% of XC)
  CPCM terms                ....       0.395 sec  ( 17.0% of F)
Diagonalization             ....       0.000 sec  (  0.0%)
Density matrix formation    ....       0.005 sec  (  0.2%)
Total Energy calculation    ....       0.002 sec  (  0.1%)
Population analysis         ....       0.003 sec  (  0.1%)
Orbital Transformation      ....       0.003 sec  (  0.1%)
Orbital Orthonormalization  ....       0.000 sec  (  0.0%)
DIIS solution               ....       0.014 sec  (  0.6%)
SOSCF solution              ....       0.007 sec  (  0.3%)
Finished LeanSCF after   2.4 sec

Maximum memory used throughout the entire LEANSCF-calculation: 11.7 MB

-------------------------   --------------------
FINAL SINGLE POINT ENERGY      -155.112601643912
-------------------------   --------------------

------------------------------------------------------------------------------
                         ORCA SCF GRADIENT CALCULATION
------------------------------------------------------------------------------

Nuc. rep. gradient        (SHARK) ... done (  0.0 sec)
HCore & Overlap gradient  (SHARK) ... done (  0.0 sec)
Split-RIJ-J gradient      (SHARK) ... done (  0.1 sec)
XC gradient                       ... done (  0.7 sec)
CPCM gradient                     ... done (  0.1 sec)

------------------
CARTESIAN GRADIENT
------------------

   1   C   :   -0.000255247   -0.000146979   -0.000002496
   2   C   :   -0.000183267    0.001185199    0.000073612
   3   O   :    0.000183714   -0.001453858   -0.000103571
   4   H   :   -0.000019672    0.000039026    0.000046349
   5   H   :    0.000052850    0.000017832    0.000003495
   6   H   :   -0.000019589    0.000041175   -0.000039188
   7   H   :   -0.000024042   -0.000036510    0.000102032
   8   H   :   -0.000016288   -0.000048011   -0.000093629
   9   H   :    0.000281541    0.000402127    0.000013396

Difference to translation invariance:
           :    0.0000000000   -0.0000000000    0.0000000000

Difference to rotation invariance:
           :    0.0001044268    0.0000901247   -0.0002232862

Norm of the Cartesian gradient     ...    0.0019910419
RMS gradient                       ...    0.0003831762
MAX gradient                       ...    0.0014538582

-------
TIMINGS
-------

Total SCF gradient time     ....        1.037 sec

Densities                   ....       0.000 sec  (  0.0%)
One electron gradient       ....       0.020 sec  (  1.9%)
RI-J Coulomb gradient       ....       0.149 sec  ( 14.4%)
XC gradient                 ....       0.736 sec  ( 71.0%)
CPCM gradient               ....       0.068 sec  (  6.6%)
   A-Matrix (El+Nuc)        ....       0.006 sec  (  0.6%)
   Potential                ....       0.062 sec  (  6.0%)

Maximum memory used throughout the entire SCFGRAD-calculation: 15.7 MB
------------------------------------------------------------------------------
                         ORCA GEOMETRY RELAXATION STEP
------------------------------------------------------------------------------

Reading the OPT-File                    .... done
Getting information on internals        .... done
Copying old internal coords+grads       .... done
Making the new internal coordinates     .... (2022 redundants) done
Validating the new internal coordinates .... (2022 redundants) done
Calculating the B-matrix                .... done
Calculating the G,G- and P matrices     .... done
Transforming gradient to internals      .... done
Projecting the internal gradient        .... done
Number of atoms                         ....   9
Number of internal coordinates          ....  30
Current Energy                          ....  -155.112601644 Eh
Current gradient norm                   ....     0.001991042 Eh/bohr
Maximum allowed component of the step   ....  0.300
Current trust radius                    ....  0.300
Evaluating the initial hessian          ....  (Almloef) done
Projecting the Hessian                  .... done
Forming the augmented Hessian           .... done
Diagonalizing the augmented Hessian     .... done
Last element of RFO vector              ....  0.999993895
Lowest eigenvalues of augmented Hessian:
 -0.000004413  0.012167777  0.016154090  0.108460390  0.132247893
Length of the computed step             ....  0.003494220
The final length of the internal step   ....  0.003494220
Converting the step to Cartesian space:
 Initial RMS(Int)=    0.0006379543
Transforming coordinates:
 Iter   0:  RMS(Cart)=    0.0007694017 RMS(Int)=    0.0006379098
done
Storing new coordinates                 .... done

                                .--------------------.
          ----------------------|Geometry convergence|-------------------------
          Item                value                   Tolerance       Converged
          ---------------------------------------------------------------------
          RMS gradient        0.0002494231            0.0001000000      NO
          MAX gradient        0.0011228379            0.0003000000      NO
          RMS step            0.0006379543            0.0020000000      YES
          MAX step            0.0024792673            0.0040000000      YES
          ........................................................
          Max(Bonds)      0.0013      Max(Angles)    0.10
          Max(Dihed)        0.04      Max(Improp)    0.00
          ---------------------------------------------------------------------

The optimization has not yet converged - more geometry cycles are needed


    ---------------------------------------------------------------------------
                         Redundant Internal Coordinates
                            (Angstroem and degrees)

        Definition                    Value    dE/dq     Step     New-Value
    ----------------------------------------------------------------------------
     1. B(C   1,C   0)                1.5174  0.000251 -0.0003    1.5171   
     2. B(O   2,C   1)                1.4476  0.001123 -0.0013    1.4463   
     3. B(H   3,C   0)                1.0999 -0.000049  0.0001    1.1000   
     4. B(H   4,C   0)                1.0995 -0.000022  0.0000    1.0995   
     5. B(H   5,C   0)                1.0999 -0.000049  0.0001    1.1000   
     6. B(H   6,C   1)                1.1042 -0.000104  0.0002    1.1043   
     7. B(H   7,C   1)                1.1042 -0.000106  0.0002    1.1044   
     8. B(H   8,O   2)                0.9746  0.000393 -0.0004    0.9742   
     9. A(C   1,C   0,H   5)          110.91  0.000044   -0.01    110.90   
    10. A(H   3,C   0,H   4)          108.20  0.000005    0.00    108.20   
    11. A(H   3,C   0,H   5)          108.54 -0.000019   -0.00    108.54   
    12. A(C   1,C   0,H   4)          109.98 -0.000084    0.02    110.00   
    13. A(C   1,C   0,H   3)          110.94  0.000046   -0.01    110.93   
    14. A(H   4,C   0,H   5)          108.19  0.000006    0.00    108.19   
    15. A(H   6,C   1,H   7)          107.81 -0.000024    0.01    107.81   
    16. A(C   0,C   1,O   2)          108.42  0.000073   -0.01    108.40   
    17. A(O   2,C   1,H   7)          109.94  0.000008   -0.00    109.94   
    18. A(C   0,C   1,H   7)          110.35 -0.000021    0.00    110.36   
    19. A(O   2,C   1,H   6)          109.96 -0.000010   -0.00    109.96   
    20. A(C   0,C   1,H   6)          110.37 -0.000028    0.00    110.37   
    21. A(C   1,O   2,H   8)          107.22 -0.000583    0.10    107.32   
    22. D(O   2,C   1,C   0,H   4)    179.83 -0.000003   -0.02    179.81   
    23. D(H   6,C   1,C   0,H   3)     59.98 -0.000004   -0.02     59.96   
    24. D(O   2,C   1,C   0,H   3)    -60.50 -0.000021   -0.02    -60.52   
    25. D(H   6,C   1,C   0,H   4)    -59.68  0.000014   -0.03    -59.71   
    26. D(H   6,C   1,C   0,H   5)   -179.31  0.000033   -0.04   -179.35   
    27. D(O   2,C   1,C   0,H   5)     60.20  0.000016   -0.03     60.17   
    28. D(H   8,O   2,C   1,C   0)    179.73 -0.000002   -0.02    179.72   
    29. D(H   8,O   2,C   1,H   7)    -59.55  0.000023   -0.02    -59.57   
    30. D(H   8,O   2,C   1,H   6)     58.99 -0.000007   -0.01     58.98   
    ----------------------------------------------------------------------------

Geometry step timings:
Preparation and reading OPT file:      0.000 s (27.198 %)
Internal coordinates            :      0.000 s ( 1.923 %)
B/P matrices and projection     :      0.000 s (11.172 %)
Hessian update/contruction      :      0.000 s (26.740 %)
Making the step                 :      0.000 s ( 7.784 %)
Converting the step to Cartesian:      0.000 s ( 1.740 %)
Storing new data                :      0.000 s ( 4.304 %)
Checking convergence            :      0.000 s ( 0.092 %)
Final printing                  :      0.000 s (18.773 %)
Total time                      :      0.001 s

Time for energy+gradient        :      3.836 s
Time for complete geometry iter :      3.897 s

         *************************************************************
         *                GEOMETRY OPTIMIZATION CYCLE   2            *
         *************************************************************
---------------------------------
CARTESIAN COORDINATES (ANGSTROEM)
---------------------------------
  C     -1.021231   -0.092975    0.015632
  C      0.440332    0.313553    0.008901
  O      1.246984   -0.884074   -0.073143
  H     -1.282450   -0.635398   -0.904954
  H     -1.659626    0.799879    0.080985
  H     -1.244876   -0.738795    0.877536
  H      0.652614    0.970733   -0.852853
  H      0.687941    0.872160    0.928867
  H      2.180312   -0.605083   -0.080970

----------------------------
CARTESIAN COORDINATES (A.U.)
----------------------------
  NO LB      ZA    FRAG     MASS         X           Y           Z
   0 C     6.0000    0    12.011   -1.929846   -0.175697    0.029540
   1 C     6.0000    0    12.011    0.832108    0.592529    0.016821
   2 O     8.0000    0    15.999    2.356458   -1.670658   -0.138219
   3 H     1.0000    0     1.008   -2.423480   -1.200727   -1.710116
   4 H     1.0000    0     1.008   -3.136239    1.511552    0.153039
   5 H     1.0000    0     1.008   -2.352475   -1.396121    1.658302
   6 H     1.0000    0     1.008    1.233261    1.834420   -1.611659
   7 H     1.0000    0     1.008    1.300020    1.648144    1.755303
   8 H     1.0000    0     1.008    4.120193   -1.143442   -0.153011

--------------------------------
INTERNAL COORDINATES (ANGSTROEM)
--------------------------------
 C      0   0   0     0.000000000000     0.00000000     0.00000000
 C      1   0   0     1.517061783627     0.00000000     0.00000000
 O      2   1   0     1.446281059219   108.40250116     0.00000000
 H      1   2   3     1.099971661224   110.92959538   299.47960482
 H      1   2   3     1.099548699710   110.00026790   179.80903738
 H      1   2   3     1.099990570731   110.89666030    60.17126819
 H      2   1   3     1.104341203905   110.37237728   120.48027400
 H      2   1   3     1.104395028267   110.35560771   239.54846428
 H      3   2   1     0.974165997147   107.31743438   179.71725903

---------------------------
INTERNAL COORDINATES (A.U.)
---------------------------
 C      0   0   0     0.000000000000     0.00000000     0.00000000
 C      1   0   0     2.866831299294     0.00000000     0.00000000
 O      2   1   0     2.733075114601   108.40250116     0.00000000
 H      1   2   3     2.078645194788   110.92959538   299.47960482
 H      1   2   3     2.077845913361   110.00026790   179.80903738
 H      1   2   3     2.078680928577   110.89666030    60.17126819
 H      2   1   3     2.086902433785   110.37237728   120.48027400
 H      2   1   3     2.087004147090   110.35560771   239.54846428
 H      3   2   1     1.840906943586   107.31743438   179.71725903

------------------------------------------------------------------------------
                   ___                                                        
                  /   \      - P O W E R E D   B Y -                         
                 /     \                                                     
                 |  |  |   _    _      __       _____    __    __             
                 |  |  |  | |  | |    /  \     |  _  \  |  |  /  |          
                  \  \/   | |  | |   /    \    | | | |  |  | /  /          
                 / \  \   | |__| |  /  /\  \   | |_| |  |  |/  /          
                |  |  |   |  __  | /  /__\  \  |    /   |      \           
                |  |  |   | |  | | |   __   |  |    \   |  |\   \          
                \     /   | |  | | |  |  |  |  | |\  \  |  | \   \       
                 \___/    |_|  |_| |__|  |__|  |_| \__\ |__|  \__/        
                                                                              
                      - O R C A' S   B I G   F R I E N D -                    
                                      &                                       
                       - I N T E G R A L  F E E D E R -                       
                                                                              
 v1 FN, 2020, v2 2021, v3 2022-2024                                           
------------------------------------------------------------------------------


----------------------
SHARK INTEGRAL PACKAGE
----------------------

Number of atoms                             ...      9
Number of basis functions                   ...    129
Number of shells                            ...     57
Maximum angular momentum                    ...      3
Integral batch strategy                     ... SHARK/LIBINT Hybrid
RI-J (if used) integral strategy            ... SPLIT-RIJ (Revised 2003 algorithm where possible)
Printlevel                                  ...      1
Contraction scheme used                     ... SEGMENTED contraction
Prescreening option                         ... SCHWARTZ
   Thresh                                   ... 2.500e-11
   Tcut                                     ... 2.500e-12
   Tpresel                                  ... 2.500e-12 
Coulomb Range Separation                    ... NOT USED
Exchange Range Separation                   ... NOT USED
Multipole approximations                    ... NOT USED
Finite Nucleus Model                        ... NOT USED
CABS basis                                  ... NOT available
Auxiliary Coulomb fitting basis             ... AVAILABLE
   # of basis functions in Aux-J            ...    213
   # of shells in Aux-J                     ...     75
   Maximum angular momentum in Aux-J        ...      4
Auxiliary J/K fitting basis                 ... NOT available
Auxiliary Correlation fitting basis         ... NOT available
Auxiliary 'external' fitting basis          ... NOT available

Checking pre-screening integrals            ... done (  0.0 sec) Dimension = 57
Check shell pair data                       ... done (  0.0 sec)
Shell pair information
Shell pair cut-off parameter TPreSel        ...   2.5e-12
Total number of shell pairs                 ...      1653
Shell pairs after pre-screening             ...      1633
Total number of primitive shell pairs       ...      4740
Primitive shell pairs kept                  ...      3964
          la=0 lb=0:    547 shell pairs
          la=1 lb=0:    491 shell pairs
          la=1 lb=1:    120 shell pairs
          la=2 lb=0:    196 shell pairs
          la=2 lb=1:     90 shell pairs
          la=2 lb=2:     21 shell pairs
          la=3 lb=0:     99 shell pairs
          la=3 lb=1:     45 shell pairs
          la=3 lb=2:     18 shell pairs
          la=3 lb=3:      6 shell pairs

Calculating one electron integrals          ... done (  0.0 sec)
Calculating RI/J V-Matrix + Cholesky decomp.... done (  0.0 sec)
Calculating Nuclear repulsion               ... done (  0.0 sec) ENN=     81.085354780188 Eh

Diagonalization of the overlap matrix:
Smallest eigenvalue                        ... 5.339e-04
Time for diagonalization                   ...    0.001 sec
Threshold for overlap eigenvalues          ... 1.000e-07
Number of eigenvalues below threshold      ... 0
Time for construction of square roots      ...    0.000 sec
Total time needed                          ...    0.001 sec

-------------------
DFT GRID GENERATION
-------------------

General Integration Accuracy     IntAcc      ... 4.388
Radial Grid Type                 RadialGrid  ... OptM3 with GC (2021)
Angular Grid (max. ang.)         AngularGrid ... 4 (Lebedev-302)
Angular grid pruning method      GridPruning ... 4 (adaptive)
Weight generation scheme         WeightScheme... mBecke (2022)
Basis function cutoff            BFCut       ... 1.0000e-11
Integration weight cutoff        WCut        ... 1.0000e-14
Partially contracted basis set               ... off
Rotationally invariant grid construction     ... off
Angular grids for H and He will be reduced by one unit

Total number of grid points                  ...    37735
Total number of batches                      ...      593
Average number of points per batch           ...       63
Average number of grid points per atom       ...     4193
Initializing property integral containers    ... done (  0.0 sec)

SHARK setup successfully completed in   0.1 seconds

Maximum memory used throughout the entire STARTUP-calculation: 18.5 MB
Occupation numbers will be reassigned to an Aufbau configuration
             **** ENERGY FILE WAS UPDATED (geo_opt_tzvp.en.tmp) ****
Finished Guess after   0.0 sec
Maximum memory used throughout the entire GUESS-calculation: 10.5 MB
--------------------
CPCM SOLVATION MODEL
--------------------
CPCM parameters:
  Epsilon                                         ...     INFINITY
  Refrac                                          ...       1.3300
  Rsolv                                           ...       1.3000
  Surface type                                    ... GAUSSIAN VDW
  Discretization scheme                           ... Constant charge density
    Threshold for H atoms                         ...       5.0000 (charges/Ang^2)
    Threshold for non-H atoms                     ...       5.0000 (charges/Ang^2)
  Epsilon function type                           ...         CPCM
Solvent:                                          ... CONDUCTOR
Radii:
  Scheme                                          ... Element-dependent radii
  Radius for C  used is    3.7795 Bohr (=   2.0000 Ang.)
  Radius for O  used is    3.2503 Bohr (=   1.7200 Ang.)
  Radius for H  used is    2.4566 Bohr (=   1.3000 Ang.)
Calculating surface                               ...        done! (  0.0s)
Cavity surface points                             ...          608
Cavity Volume                                     ...     461.1740
Cavity Surface-area                               ...     319.4508
Calculating surface distance matrix               ...        done! (  0.0s)
Performing Cholesky decomposition & store         ...        done! (  0.0s)
Overall time for CPCM initialization              ...                 0.0s

----------------------------------------D-I-I-S--------------------------------------------
Iteration    Energy (Eh)           Delta-E    RMSDP     MaxDP     DIISErr   Damp  Time(sec)
-------------------------------------------------------------------------------------------
               ***  Starting incremental Fock matrix formation  ***
                              *** Initializing SOSCF ***
---------------------------------------S-O-S-C-F--------------------------------------
Iteration    Energy (Eh)           Delta-E    RMSDP     MaxDP     MaxGrad    Time(sec)
--------------------------------------------------------------------------------------
    1    -155.1126032607348293     0.00e+00  1.26e-05  1.95e-04  3.58e-05     0.2
               *** Restarting incremental Fock matrix formation ***
    2    -155.1126041665800699    -9.06e-07  1.04e-05  1.63e-04  7.21e-05     0.2
    3    -155.1126041237203026     4.29e-08  5.29e-06  1.06e-04  1.23e-04     0.2
    4    -155.1126042506070917    -1.27e-07  1.49e-06  2.12e-05  9.16e-06     0.2
    5    -155.1126042510503567    -4.43e-10  5.13e-07  1.23e-05  6.42e-06     0.2
                 **** Energy Check signals convergence ****

               *****************************************************
               *                     SUCCESS                       *
               *           SCF CONVERGED AFTER   5 CYCLES          *
               *****************************************************

             **** ENERGY FILE WAS UPDATED (geo_opt_tzvp.en.tmp) ****

----------------
TOTAL SCF ENERGY
----------------

Total Energy       :       -155.11260425105036 Eh           -4220.82854 eV

Components:
Nuclear Repulsion  :         81.08535478018764 Eh            2206.44468 eV
Electronic Energy  :       -236.18827775180651 Eh           -6427.00978 eV
One Electron Energy:       -370.58829997865075 Eh          -10084.22031 eV
Two Electron Energy:        134.40002222684424 Eh            3657.21053 eV
CPCM Dielectric    :         -0.00968127943147 Eh              -0.26344 eV

Virial components:
Potential Energy   :       -309.45743955015928 Eh           -8420.76503 eV
Kinetic Energy     :        154.34483529910892 Eh            4199.93649 eV
Virial Ratio       :          2.00497437410493

DFT components:
N(Alpha)           :       13.000003572233 electrons
N(Beta)            :       13.000003572233 electrons
N(Total)           :       26.000007144467 electrons
E(X)               :      -20.759760726278 Eh       
E(C)               :       -0.920487870577 Eh       
E(XC)              :      -21.680248596855 Eh       

CPCM Solvation Model Properties:
Surface-charge          :         -0.02268874166378
Corrected charge        :         -0.00000000000000
Outlying charge corr.   :          0.00005187800715 Eh               0.00141 eV
Free-energy (cav+disp)  :  This term is not implemented in the current solvation scheme

---------------
SCF CONVERGENCE
---------------

  Last Energy change         ...    4.4326e-10  Tolerance :   1.0000e-08
  Last MAX-Density change    ...    1.2290e-05  Tolerance :   1.0000e-07
  Last RMS-Density change    ...    5.1295e-07  Tolerance :   5.0000e-09
  Last DIIS Error            ...    4.6225e-04  Tolerance :   5.0000e-07
  Last Orbital Gradient      ...    6.4206e-06  Tolerance :   1.0000e-05
  Last Orbital Rotation      ...    7.2846e-06  Tolerance :   1.0000e-05


Total SCF time: 0 days 0 hours 0 min 0 sec 
Finished LeanSCF after   1.0 sec

Maximum memory used throughout the entire LEANSCF-calculation: 11.9 MB

-------------------------   --------------------
FINAL SINGLE POINT ENERGY      -155.112604251050
-------------------------   --------------------

------------------------------------------------------------------------------
                         ORCA SCF GRADIENT CALCULATION
------------------------------------------------------------------------------

Nuc. rep. gradient        (SHARK) ... done (  0.0 sec)
HCore & Overlap gradient  (SHARK) ... done (  0.0 sec)
Split-RIJ-J gradient      (SHARK) ... done (  0.1 sec)
XC gradient                       ... done (  0.8 sec)
CPCM gradient                     ... done (  0.1 sec)

------------------
CARTESIAN GRADIENT
------------------

   1   C   :   -0.000031704   -0.000115859   -0.000000552
   2   C   :   -0.000185260    0.000666915    0.000042332
   3   O   :    0.000175921   -0.000706149   -0.000059363
   4   H   :   -0.000014595    0.000021908    0.000005952
   5   H   :    0.000043078    0.000038746    0.000005868
   6   H   :   -0.000014655    0.000015972   -0.000004702
   7   H   :    0.000025294   -0.000062303    0.000022883
   8   H   :    0.000033772   -0.000078830   -0.000020808
   9   H   :   -0.000031851    0.000219599    0.000008390

Difference to translation invariance:
           :    0.0000000000    0.0000000000    0.0000000000

Difference to rotation invariance:
           :    0.0001019419    0.0000918886   -0.0002156583

Norm of the Cartesian gradient     ...    0.0010465130
RMS gradient                       ...    0.0002014015
MAX gradient                       ...    0.0007061488

-------
TIMINGS
-------

Total SCF gradient time     ....        1.049 sec

Densities                   ....       0.000 sec  (  0.0%)
One electron gradient       ....       0.020 sec  (  1.9%)
RI-J Coulomb gradient       ....       0.146 sec  ( 13.9%)
XC gradient                 ....       0.753 sec  ( 71.8%)
CPCM gradient               ....       0.069 sec  (  6.6%)
   A-Matrix (El+Nuc)        ....       0.006 sec  (  0.6%)
   Potential                ....       0.063 sec  (  6.0%)

Maximum memory used throughout the entire SCFGRAD-calculation: 15.7 MB
------------------------------------------------------------------------------
                         ORCA GEOMETRY RELAXATION STEP
------------------------------------------------------------------------------

Reading the OPT-File                    .... done
Getting information on internals        .... done
Copying old internal coords+grads       .... done
Making the new internal coordinates     .... (2022 redundants) done
Validating the new internal coordinates .... (2022 redundants) done
Calculating the B-matrix                .... done
Calculating the G,G- and P matrices     .... done
Transforming gradient to internals      .... done
Projecting the internal gradient        .... done
Number of atoms                         ....   9
Number of internal coordinates          ....  30
Current Energy                          ....  -155.112604251 Eh
Current gradient norm                   ....     0.001046513 Eh/bohr
Maximum allowed component of the step   ....  0.300
Current trust radius                    ....  0.300
Updating the Hessian (BFGS)             .... done
Forming the augmented Hessian           .... done
Diagonalizing the augmented Hessian     .... done
Last element of RFO vector              ....  0.999991551
Lowest eigenvalues of augmented Hessian:
 -0.000002433  0.012080127  0.016127370  0.108753133  0.129670549
Length of the computed step             ....  0.004110702
The final length of the internal step   ....  0.004110702
Converting the step to Cartesian space:
 Initial RMS(Int)=    0.0007505080
Transforming coordinates:
 Iter   0:  RMS(Cart)=    0.0008719706 RMS(Int)=    0.0007505567
done
Storing new coordinates                 .... done
The predicted energy change is          ....    -0.000001217
Previously predicted energy change      ....    -0.000002207
Actually observed energy change         ....    -0.000002607
Ratio of predicted to observed change   ....     1.181560816
New trust radius                        ....     0.450000000

                                .--------------------.
          ----------------------|Geometry convergence|-------------------------
          Item                value                   Tolerance       Converged
          ---------------------------------------------------------------------
          Energy change      -0.0000026071            0.0000050000      YES
          RMS gradient        0.0001208772            0.0001000000      NO
          MAX gradient        0.0004739061            0.0003000000      NO
          RMS step            0.0007505080            0.0020000000      YES
          MAX step            0.0025347975            0.0040000000      YES
          ........................................................
          Max(Bonds)      0.0012      Max(Angles)    0.15
          Max(Dihed)        0.06      Max(Improp)    0.00
          ---------------------------------------------------------------------

The optimization has not yet converged - more geometry cycles are needed


    ---------------------------------------------------------------------------
                         Redundant Internal Coordinates
                            (Angstroem and degrees)

        Definition                    Value    dE/dq     Step     New-Value
    ----------------------------------------------------------------------------
     1. B(C   1,C   0)                1.5171  0.000032 -0.0001    1.5169   
     2. B(O   2,C   1)                1.4463  0.000474 -0.0012    1.4450   
     3. B(H   3,C   0)                1.1000 -0.000008  0.0000    1.1000   
     4. B(H   4,C   0)                1.0995  0.000001  0.0000    1.0996   
     5. B(H   5,C   0)                1.1000 -0.000008  0.0000    1.1000   
     6. B(H   6,C   1)                1.1043 -0.000048  0.0002    1.1045   
     7. B(H   7,C   1)                1.1044 -0.000050  0.0002    1.1046   
     8. B(H   8,O   2)                0.9742  0.000040 -0.0001    0.9740   
     9. A(C   1,C   0,H   5)          110.90  0.000030   -0.01    110.88   
    10. A(H   3,C   0,H   4)          108.20  0.000016   -0.00    108.20   
    11. A(H   3,C   0,H   5)          108.54 -0.000003   -0.01    108.53   
    12. A(C   1,C   0,H   4)          110.00 -0.000083    0.03    110.03   
    13. A(C   1,C   0,H   3)          110.93  0.000026   -0.01    110.92   
    14. A(H   4,C   0,H   5)          108.19  0.000015   -0.00    108.19   
    15. A(H   6,C   1,H   7)          107.81  0.000048   -0.02    107.80   
    16. A(C   0,C   1,O   2)          108.40 -0.000005    0.00    108.40   
    17. A(O   2,C   1,H   7)          109.94 -0.000082    0.02    109.96   
    18. A(C   0,C   1,H   7)          110.36  0.000034   -0.01    110.34   
    19. A(O   2,C   1,H   6)          109.96 -0.000038    0.02    109.98   
    20. A(C   0,C   1,H   6)          110.37  0.000041   -0.01    110.36   
    21. A(C   1,O   2,H   8)          107.32 -0.000426    0.15    107.46   
    22. D(O   2,C   1,C   0,H   4)    179.81  0.000017   -0.05    179.76   
    23. D(H   6,C   1,C   0,H   3)     59.96 -0.000025   -0.02     59.94   
    24. D(O   2,C   1,C   0,H   3)    -60.52 -0.000001   -0.03    -60.55   
    25. D(H   6,C   1,C   0,H   4)    -59.71 -0.000008   -0.03    -59.74   
    26. D(H   6,C   1,C   0,H   5)   -179.35  0.000008   -0.04   -179.39   
    27. D(O   2,C   1,C   0,H   5)     60.17  0.000033   -0.06     60.11   
    28. D(H   8,O   2,C   1,C   0)    179.72  0.000015   -0.02    179.69   
    29. D(H   8,O   2,C   1,H   7)    -59.57  0.000004   -0.02    -59.60   
    30. D(H   8,O   2,C   1,H   6)     58.98 -0.000010   -0.02     58.96   
    ----------------------------------------------------------------------------

Geometry step timings:
Preparation and reading OPT file:      0.000 s (26.324 %)
Internal coordinates            :      0.000 s ( 1.926 %)
B/P matrices and projection     :      0.000 s (10.835 %)
Hessian update/contruction      :      0.000 s (20.947 %)
Making the step                 :      0.000 s ( 7.705 %)
Converting the step to Cartesian:      0.000 s ( 1.685 %)
Storing new data                :      0.000 s ( 4.013 %)
Checking convergence            :      0.000 s ( 0.883 %)
Final printing                  :      0.000 s (25.602 %)
Total time                      :      0.001 s

Time for energy+gradient        :      2.379 s
Time for complete geometry iter :      2.434 s

         *************************************************************
         *                GEOMETRY OPTIMIZATION CYCLE   3            *
         *************************************************************
---------------------------------
CARTESIAN COORDINATES (ANGSTROEM)
---------------------------------
  C     -1.021009   -0.092882    0.015623
  C      0.440433    0.313566    0.008871
  O      1.246384   -0.883073   -0.072630
  H     -1.282112   -0.635081   -0.905170
[...]
   10    -155.1146922318923771    -1.63e-08  5.15e-06  1.32e-04  9.24e-06     0.3
   11    -155.1146922353060518    -3.41e-09  1.46e-06  3.45e-05  3.57e-06     0.3
                 **** Energy Check signals convergence ****

               *****************************************************
               *                     SUCCESS                       *
               *           SCF CONVERGED AFTER  11 CYCLES          *
               *****************************************************

             **** ENERGY FILE WAS UPDATED (single_point_tzvpd.en.tmp) ****

----------------
TOTAL SCF ENERGY
----------------

Total Energy       :       -155.11469223530605 Eh           -4220.88536 eV

Components:
Nuclear Repulsion  :         81.10984973875962 Eh            2207.11122 eV
Electronic Energy  :       -236.21490926892787 Eh           -6427.73446 eV
One Electron Energy:       -370.57956693791198 Eh          -10083.98268 eV
Two Electron Energy:        134.36465766898411 Eh            3656.24822 eV
CPCM Dielectric    :         -0.00963270513778 Eh              -0.26212 eV

Virial components:
Potential Energy   :       -309.43993463381821 Eh           -8420.28870 eV
Kinetic Energy     :        154.32524239851219 Eh            4199.40334 eV
Virial Ratio       :          2.00511549390446

DFT components:
N(Alpha)           :       12.999994754611 electrons
N(Beta)            :       12.999994754611 electrons
N(Total)           :       25.999989509221 electrons
E(X)               :      -20.754032439577 Eh       
E(C)               :       -0.919934155294 Eh       
E(XC)              :      -21.673966594871 Eh       

CPCM Solvation Model Properties:
Surface-charge          :         -0.02524458753684
Corrected charge        :         -0.00000000000000
Outlying charge corr.   :          0.00006422744115 Eh               0.00175 eV
Free-energy (cav+disp)  :  This term is not implemented in the current solvation scheme

---------------
SCF CONVERGENCE
---------------

  Last Energy change         ...    3.4137e-09  Tolerance :   1.0000e-08
  Last MAX-Density change    ...    3.4471e-05  Tolerance :   1.0000e-07
  Last RMS-Density change    ...    1.4555e-06  Tolerance :   5.0000e-09
  Last DIIS Error            ...    5.9700e-04  Tolerance :   5.0000e-07
  Last Orbital Gradient      ...    3.5730e-06  Tolerance :   1.0000e-05
  Last Orbital Rotation      ...    1.4172e-05  Tolerance :   1.0000e-05


----------------
ORBITAL ENERGIES
----------------

  NO   OCC          E(Eh)            E(eV) 
   0   2.0000     -18.771577      -510.8006 
   1   2.0000      -9.938353      -270.4363 
   2   2.0000      -9.884087      -268.9597 
   3   2.0000      -0.931297       -25.3419 
   4   2.0000      -0.678973       -18.4758 
   5   2.0000      -0.548221       -14.9179 
   6   2.0000      -0.464297       -12.6342 
   7   2.0000      -0.413734       -11.2583 
   8   2.0000      -0.361361        -9.8331 
   9   2.0000      -0.338462        -9.2100 
  10   2.0000      -0.321452        -8.7472 
  11   2.0000      -0.296701        -8.0736 
  12   2.0000      -0.234523        -6.3817 
  13   0.0000      -0.000303        -0.0083 
  14   0.0000       0.023638         0.6432 
  15   0.0000       0.039819         1.0835 
  16   0.0000       0.048491         1.3195 
  17   0.0000       0.070459         1.9173 
  18   0.0000       0.085491         2.3263 
  19   0.0000       0.098080         2.6689 
  20   0.0000       0.102190         2.7807 
  21   0.0000       0.109891         2.9903 
  22   0.0000       0.110863         3.0167 
  23   0.0000       0.131943         3.5904 
*Only the first 10 virtual orbitals were printed.

                    ********************************
                    * MULLIKEN POPULATION ANALYSIS *
                    ********************************

-----------------------
MULLIKEN ATOMIC CHARGES
-----------------------
   0 C :   -1.101286
   1 C :   -0.185200
   2 O :   -0.576357
   3 H :    0.310445
   4 H :    0.365974
   5 H :    0.310104
   6 H :    0.271809
   7 H :    0.271591
   8 H :    0.332920
Sum of atomic charges:   -0.0000000

--------------------------------
MULLIKEN REDUCED ORBITAL CHARGES
--------------------------------
  0 C s       :     3.384376  s :     3.384376
      pz      :     1.329079  p :     3.630791
      px      :     1.013596
      py      :     1.288116
      dz2     :     0.016897  d :     0.082944
      dxz     :    -0.001808
      dyz     :     0.042952
      dx2y2   :     0.007904
      dxy     :     0.016999
      f0      :     0.000373  f :     0.003175
      f+1     :     0.000131
      f-1     :     0.000775
      f+2     :     0.000378
      f-2     :     0.000076
      f+3     :     0.000875
      f-3     :     0.000569

  1 C s       :     3.342863  s :     3.342863
      pz      :     1.127344  p :     2.774153
      px      :     0.831204
      py      :     0.815605
      dz2     :    -0.007358  d :     0.058681
      dxz     :    -0.029326
      dyz     :     0.066349
      dx2y2   :     0.016200
      dxy     :     0.012816
      f0      :     0.001290  f :     0.009503
      f+1     :     0.000389
      f-1     :     0.001227
      f+2     :     0.000524
      f-2     :     0.001559
      f+3     :     0.002041
      f-3     :     0.002473

  2 O s       :     3.827767  s :     3.827767
      pz      :     1.922164  p :     4.711607
      px      :     1.303471
      py      :     1.485971
      dz2     :     0.002642  d :     0.035549
      dxz     :     0.004039
      dyz     :     0.008284
      dx2y2   :     0.013927
      dxy     :     0.006658
      f0      :     0.000172  f :     0.001434
      f+1     :     0.000390
      f-1     :     0.000209
      f+2     :     0.000059
      f-2     :     0.000080
      f+3     :     0.000220
      f-3     :     0.000304

  3 H s       :     0.620191  s :     0.620191
      pz      :     0.035391  p :     0.069364
      px      :     0.010828
      py      :     0.023145

  4 H s       :     0.567923  s :     0.567923
      pz      :     0.019797  p :     0.066103
      px      :     0.020335
      py      :     0.025971

  5 H s       :     0.620433  s :     0.620433
      pz      :     0.034404  p :     0.069463
      px      :     0.009990
      py      :     0.025069

  6 H s       :     0.670170  s :     0.670170
      pz      :     0.017345  p :     0.058021
      px      :     0.015601
      py      :     0.025075

  7 H s       :     0.670175  s :     0.670175
      pz      :     0.020810  p :     0.058234
      px      :     0.015851
      py      :     0.021573

  8 H s       :     0.613077  s :     0.613077
      pz      :     0.019285  p :     0.054003
      px      :     0.022021
      py      :     0.012697



                     *******************************
                     * LOEWDIN POPULATION ANALYSIS *
                     *******************************

----------------------
LOEWDIN ATOMIC CHARGES
----------------------
   0 C :   -0.111341
   1 C :   -0.334369
   2 O :   -0.111570
   3 H :    0.076377
   4 H :    0.080718
   5 H :    0.076390
   6 H :    0.113915
   7 H :    0.113804
   8 H :    0.096076

-------------------------------
LOEWDIN REDUCED ORBITAL CHARGES
-------------------------------
  0 C s       :     2.748751  s :     2.748751
      pz      :     0.976711  p :     2.897081
      px      :     0.950083
      py      :     0.970287
      dz2     :     0.057663  d :     0.439420
      dxz     :     0.104999
      dyz     :     0.080108
      dx2y2   :     0.067271
      dxy     :     0.129379
      f0      :     0.002406  f :     0.026089
      f+1     :     0.003480
      f-1     :     0.003919
      f+2     :     0.004616
      f-2     :     0.001905
      f+3     :     0.005732
      f-3     :     0.004032

  1 C s       :     2.708405  s :     2.708405
      pz      :     0.954204  p :     2.672093
      px      :     0.892572
      py      :     0.825317
      dz2     :     0.085958  d :     0.885325
      dxz     :     0.139837
      dyz     :     0.224416
      dx2y2   :     0.221481
      dxy     :     0.213633
      f0      :     0.007704  f :     0.068547
      f+1     :     0.005484
      f-1     :     0.007662
      f+2     :     0.005218
      f-2     :     0.011094
      f+3     :     0.016418
      f-3     :     0.014968

  2 O s       :     3.319464  s :     3.319464
      pz      :     1.705727  p :     4.483723
      px      :     1.289557
      py      :     1.488439
      dz2     :     0.030106  d :     0.304197
      dxz     :     0.025487
      dyz     :     0.068319
      dx2y2   :     0.115418
      dxy     :     0.064867
      f0      :     0.000339  f :     0.004185
      f+1     :     0.000669
      f-1     :     0.000351
      f+2     :     0.000121
      f-2     :     0.000449
      f+3     :     0.000795
      f-3     :     0.001462

  3 H s       :     0.702656  s :     0.702656
      pz      :     0.094781  p :     0.220967
      px      :     0.054675
      py      :     0.071511

  4 H s       :     0.699424  s :     0.699424
      pz      :     0.059744  p :     0.219857
      px      :     0.067461
      py      :     0.092652

  5 H s       :     0.702554  s :     0.702554
      pz      :     0.090097  p :     0.221056
      px      :     0.054083
      py      :     0.076876

  6 H s       :     0.693352  s :     0.693352
      pz      :     0.085784  p :     0.192733
      px      :     0.046425
      py      :     0.060524

  7 H s       :     0.693440  s :     0.693440
      pz      :     0.090445  p :     0.192756
      px      :     0.047048
      py      :     0.055263

  8 H s       :     0.590952  s :     0.590952
      pz      :     0.090228  p :     0.312973
      px      :     0.139533
      py      :     0.083211



                      *****************************
                      * MAYER POPULATION ANALYSIS *
                      *****************************

  NA   - Mulliken gross atomic population
  ZA   - Total nuclear charge
  QA   - Mulliken gross atomic charge
  VA   - Mayer's total valence
  BVA  - Mayer's bonded valence
  FA   - Mayer's free valence

  ATOM       NA         ZA         QA         VA         BVA        FA
  0 C      7.1013     6.0000    -1.1013     3.6695     3.6695    -0.0000
  1 C      6.1852     6.0000    -0.1852     3.4262     3.4262    -0.0000
  2 O      8.5764     8.0000    -0.5764     1.8265     1.8265    -0.0000
  3 H      0.6896     1.0000     0.3104     1.0331     1.0331    -0.0000
  4 H      0.6340     1.0000     0.3660     0.9650     0.9650    -0.0000
  5 H      0.6899     1.0000     0.3101     1.0337     1.0337    -0.0000
  6 H      0.7282     1.0000     0.2718     1.0071     1.0071    -0.0000
  7 H      0.7284     1.0000     0.2716     1.0075     1.0075    -0.0000
  8 H      0.6671     1.0000     0.3329     0.9119     0.9119    -0.0000

  Mayer bond orders larger than 0.100000
B(  0-C ,  1-C ) :   0.7964 B(  0-C ,  3-H ) :   0.9349 B(  0-C ,  4-H ) :   0.9042 
B(  0-C ,  5-H ) :   0.9354 B(  1-C ,  2-O ) :   0.7797 B(  1-C ,  6-H ) :   0.9348 
B(  1-C ,  7-H ) :   0.9353 B(  2-O ,  8-H ) :   0.8844 

-------
TIMINGS
-------

Total SCF time: 0 days 0 hours 0 min 3 sec 

Total time                  ....       3.290 sec
Sum of individual times     ....       3.288 sec  ( 99.9%)

SCF preparation             ....       0.020 sec  (  0.6%)
Fock matrix formation       ....       3.230 sec  ( 98.2%)
  Startup                   ....       0.002 sec  (  0.1% of F)
  Split-RI-J                ....       0.402 sec  ( 12.5% of F)
  XC integration            ....       2.277 sec  ( 70.5% of F)
    Basis function eval.    ....       0.713 sec  ( 31.3% of XC)
    Density eval.           ....       0.399 sec  ( 17.5% of XC)
    XC-Functional eval.     ....       0.070 sec  (  3.1% of XC)
    XC-Potential eval.      ....       1.002 sec  ( 44.0% of XC)
  CPCM terms                ....       0.523 sec  ( 16.2% of F)
Diagonalization             ....       0.000 sec  (  0.0%)
Density matrix formation    ....       0.005 sec  (  0.2%)
Total Energy calculation    ....       0.003 sec  (  0.1%)
Population analysis         ....       0.003 sec  (  0.1%)
Orbital Transformation      ....       0.004 sec  (  0.1%)
Orbital Orthonormalization  ....       0.000 sec  (  0.0%)
DIIS solution               ....       0.016 sec  (  0.5%)
SOSCF solution              ....       0.008 sec  (  0.3%)
Finished LeanSCF after   3.3 sec

Maximum memory used throughout the entire LEANSCF-calculation: 14.4 MB

-------------------------   --------------------
FINAL SINGLE POINT ENERGY      -155.114692235306
-------------------------   --------------------


------------------------------------------------------------------------------
                              ORCA PROPERTY CALCULATIONS
------------------------------------------------------------------------------

GBWName                                 ... single_point_tzvpd.gbw
Number of atoms                         ...      9
Number of basis functions               ...    168
Max core memory                         ...   2000 MB

Electric properties:
Dipole moment                           ... YES
Quadrupole moment                       ...  NO
Static polarizability (Dipole/Dipole)   ...  NO
Static polarizability (Dipole/Quad.)    ...  NO
Static polarizability (Quad./Quad.)     ...  NO
Static polarizability (Velocity)        ...  NO

Atomic electric properties:
Dipole moment                           ...  NO
Quadrupole moment                       ...  NO
Static polarizability                   ...  NO

Choice of electric origin               ... Center of mass
Position of electric origin             ...     0.504383    -0.443259    -0.033400

General magnetic properties:
Magnetizability                         ...  NO

EPR properties:
g-Tensor (aka g-matrix)                 ...  NO
Zero-Field splitting spin-orbit         ...  NO
Zero-field splitting spin-spin          ...  NO
Hyperfine couplings                     ...  NO (   0 nuclei)
Quadrupole couplings                    ...  NO (   0 nuclei)
Contact density                         ...  NO (   0 nuclei)

NMR properties:
Chemical shifts                         ...  NO (   0 nuclei)
Spin-rotation constants                 ...  NO (   0 nuclei)
Spin-spin couplings                     ...  NO (   0 nuclei,    0 pairs)

Choice of magnetic origin               ... GIAO
Position of magnetic origin             ...     0.000000     0.000000     0.000000

Properties with geometric perturbations:
SCF Hessian                             ...  NO
IR spectrum                             ...  NO
VCD spectrum                            ...  NO
X-ray spectroscopy properties:
SCF XES/XAS/RIXS spectra                ...  NO


-------------
DIPOLE MOMENT
-------------

Method             : SCF
Type of density    : Electron Density
Multiplicity       :   1
Irrep              :   0
Energy             :  -155.1146922353060518 Eh
Relativity type    : 
Basis              : AO
                                X                 Y                 Z
Electronic contribution:      2.351016879      -1.112862671      -0.107480620
Nuclear contribution   :     -2.112614159       1.931939286       0.143533049
                        -----------------------------------------
Total Dipole Moment    :      0.238402720       0.819076615       0.036052429
                        -----------------------------------------
Magnitude (a.u.)       :      0.853827931
Magnitude (Debye)      :      2.170258127



--------------------
Rotational spectrum 
--------------------
 
Rotational constants in cm-1:             1.163282             0.306285             0.267136 
Rotational constants in MHz :         34874.322942          9182.193942          8008.524418 

Dipole components along the rotational axes: 
x,y,z [a.u.] :     0.020135     0.853582    -0.003775 
x,y,z [Debye]:     0.051180     2.169633    -0.009594 

 

Dipole moment calculation done in   0.0 sec 

Maximum memory used throughout the entire PROP-calculation: 9.4 MB

--------------------------------
SUGGESTED CITATIONS FOR THIS RUN
--------------------------------

Below you find a list of papers that are relevant to this ORCA run
We neither can nor want to force you to cite these papers, but we appreciate if you do
You receive ORCA, which is the product of decades of hard work by many enthusiastic individuals, for free
The only thing we kindly ask in return is that you cite our papers,
We deeply appreciate it, if you show your appreciation for ORCA by not just citing the generic ORCA reference.

Please note that relegating all ORCA citations to the supporting information does *not* help us.
SI sections are not indexed - citations you put there will not count into any citation statistics
But we need these citations in order to attract the funding resources that allow us to do what we are doing

Therefore, if you are a happy ORCA user, please consider citing a few of the papers listed below in the main body of your paper

In addition to the list printed below, the program has created the file single_point_tzvpd.bibtex that contains the list in bibtex format
You can import this file easily into all common literature databanks and citation aid programs


List of essential papers. We consider these as the minimum necessary citations

  1. Neese,F.
     Software update: the ORCA program system, version 5.0
     WIRES Comput. Molec. Sci., 2022 12(1)e1606
     doi.org/10.1002/wcms.1606

List of papers to cite with high priority. The work reported in these papers was absolutely
necessary for this run to complete.
Our perspective: the developers of density functionals and basis sets usually get cited in chemistry papers
Good! But without the algorithms to do something with them, the functionals or basis sets would not do anything.
Hence, in our opinion, the algorithm design and method developments papers are equally worthy of getting cited

  1. Neese,F.
     An improvement of the resolution of the identity approximation for the formation of the Coulomb matrix
     J. Comp. Chem., 2003 24(14)1740-1747
     doi.org/10.1002/jcc.10318
  2. Garcia-Rates,M.; Neese,F.
     Effect of the Solute Cavity on the Solvation Energy and its Derivatives within the Framework of the Gaussian Charge Scheme
     J. Comput. Chem., 2020 41 922-939
     doi.org/10.1002/jcc.26139
  3. Neese,F.
     The SHARK Integral Generation and Digestion System
     J. Comp. Chem., 2022  1-16
     doi.org/10.1002/jcc.26942

List of suggested additional citations. These are papers that are important in the 'surrounding' of 
of this run, or papers that preceded the highly important papers. If you like your results we are grateful for a citation.

  1. Neese,F.
     The ORCA program system
     WIRES Comput. Molec. Sci., 2012 2(1)73-78
     doi.org/10.1002/wcms.81
  2. Neese,F.
     Software update: the ORCA program system, version 4.0
     WIRES Comput. Molec. Sci., 2018 8(1)1-6
     doi.org/10.1002/wcms.1327
  3. Neese,F.; Wennmohs,F.; Becker,U.; Riplinger,C.
     The ORCA quantum chemistry program package
     J. Chem. Phys., 2020 152 Art. No. L224108
     doi.org/10.1063/5.0004608

List of optional additional citations

  1. Neese,F.
     Approximate second-order SCF convergence for spin unrestricted wavefunctions
     Chem. Phys. Lett., 2000 325(1-3)93-98
     doi.org/10.1016/s0009-2614(00)00662-x

Timings for individual modules:

Sum of individual times          ...        3.677 sec (=   0.061 min)
Startup calculation              ...        0.222 sec (=   0.004 min)   6.0 %
SCF iterations                   ...        3.402 sec (=   0.057 min)  92.5 %
Property calculations            ...        0.053 sec (=   0.001 min)   1.4 %



                             ****ORCA TERMINATED NORMALLY****
TOTAL RUN TIME: 0 days 0 hours 0 minutes 13 seconds 183 msec
