
                                 *****************
                                 * O   R   C   A *
                                 *****************

                                            #,                                       
                                            ###                                      
                                            ####                                     
                                            #####                                    
                                            ######                                   
                                           ########,                                 
                                     ,,################,,,,,                         
                               ,,#################################,,                 
                          ,,##########################################,,             
                       ,#########################################, ''#####,          
                    ,#############################################,,   '####,        
                  ,##################################################,,,,####,       
                ,###########''''           ''''###############################       
              ,#####''   ,,,,##########,,,,          '''####'''          '####       
            ,##' ,,,,###########################,,,                        '##       
           ' ,,###''''                  '''############,,,                           
         ,,##''                                '''############,,,,        ,,,,,,###''
      ,#''                                            '''#######################'''  
     '                                                          ''''####''''         
             ,#######,   #######,   ,#######,      ##                                
            ,#'     '#,  ##    ##  ,#'     '#,    #''#        ,####,   ,####,        
            ##       ##  ##   ,#'  ##            #'  '#       #'       #'  '#        
            ##       ##  #######   ##           ,######,      #####,   #    #        
            '#,     ,#'  ##    ##  '#,     ,#' ,#      #,     #,   #   #,  ,#        
             '#######'   ##     ##  '#######'  #'      '#     '####' # '####'        



                #########################################################
                #                        -***-                          #
                #          Department of theory and spectroscopy        #
                #                                                       #
                #                      Frank Neese                      #
                #                                                       #
                #     Directorship, Architecture, Infrastructure        #
                #                    SHARK, DRIVERS                     #
                #        Core code/Algorithms in most modules           #
                #                                                       #
                #        Max Planck Institute fuer Kohlenforschung      #
                #                Kaiser Wilhelm Platz 1                 #
                #                 D-45470 Muelheim/Ruhr                 #
                #                      Germany                          #
                #                                                       #
                #                  All rights reserved                  #
                #                        -***-                          #
                #########################################################


                         Program Version 6.0.0  -   RELEASE  -


 With contributions from (in alphabetic order):
   Daniel Aravena         : Magnetic Suceptibility
   Michael Atanasov       : Ab Initio Ligand Field Theory (pilot matlab implementation)
   Alexander A. Auer      : GIAO ZORA, VPT2 properties, NMR spectrum
   Ute Becker             : All parallelization in ORCA, NUMFREQ, NUMCALC
   Giovanni Bistoni       : ED, misc. LED, open-shell LED, HFLD
   Martin Brehm           : Molecular dynamics
   Dmytro Bykov           : pre 5.0 version of the SCF Hessian
   Marcos Casanova-Páez   : Triplet and SCS-CIS(D). UHF-(DLPNO)-IP/EA/STEOM-CCSD. UHF-CVS-IP/STEOM-CCSD
   Vijay G. Chilkuri      : MRCI spin determinant printing, contributions to CSF-ICE
   Pauline Colinet        : FMM embedding
   Dipayan Datta          : RHF DLPNO-CCSD density
   Achintya Kumar Dutta   : EOM-CC, STEOM-CC
   Nicolas Foglia         : Exact transition moments, OPA infrastructure, MCD improvements
   Dmitry Ganyushin       : Spin-Orbit,Spin-Spin,Magnetic field MRCI
   Miquel Garcia          : C-PCM and meta-GGA Hessian, CCSD/C-PCM, Gaussian charge scheme
   Tiago L. C. Gouveia    : GS-ROHF, GS-ROCIS
   Yang Guo               : DLPNO-NEVPT2, F12-NEVPT2, CIM, IAO-localization
   Andreas Hansen         : Spin unrestricted coupled pair/coupled cluster methods
   Ingolf Harden          : AUTO-CI MPn and infrastructure 
   Benjamin Helmich-Paris : MC-RPA, TRAH-(SCF,CASSCF), AVAS, COSX integrals, SCF dyn. polar.
   Lee Huntington         : MR-EOM, pCC
   Robert Izsak           : Overlap fitted RIJCOSX, COSX-SCS-MP3, EOM
   Riya Kayal             : Wick's Theorem for AUTO-CI, AUTO-CI UHF-CCSDT
   Emily Kempfer          : AUTO-CI, RHF CISDT and CCSDT
   Christian Kollmar      : KDIIS, OOCD, Brueckner-CCSD(T), CCSD density, CASPT2, CASPT2-K, improved NEVPT2
   Axel Koslowski         : Symmetry handling
   Simone Kossmann        : Meta GGA functionals, TD-DFT gradient, OOMP2, (MP2 Hessian; deprecated post 5.0)
   Lucas Lang             : DCDCAS
   Marvin Lechner         : AUTO-CI (C++ implementation), FIC-MRCC
   Spencer Leger          : CASSCF response
   Dagmar Lenk            : GEPOL surface, SMD, ORCA-2-JSON
   Dimitrios Liakos       : Extrapolation schemes; Compound Job, initial MDCI parallelization
   Dimitrios Manganas     : Further ROCIS development; embedding schemes. LFT, Crystal Embedding
   Dimitrios Pantazis     : SARC Basis sets
   Anastasios Papadopoulos: AUTO-CI, single reference methods and gradients
   Taras Petrenko         : pre 6.0 DFT Hessian and TD-DFT gradient, (ASA, deprecated), ECA, 1-Electron XAS/XES, NRVS
   Peter Pinski           : DLPNO-MP2, DLPNO-MP2 Gradient
   Christoph Reimann      : Effective Core Potentials
   Marius Retegan         : Local ZFS, SOC
   Christoph Riplinger    : Optimizer, TS searches, QM/MM, DLPNO-CCSD(T), (RO)-DLPNO pert. Triples
   Michael Roemelt        : Original ROCIS implementation
   Masaaki Saitow         : Open-shell DLPNO-CCSD energy and density
   Barbara Sandhoefer     : DKH picture change effects
   Kantharuban Sivalingam : CASSCF convergence/infrastructure, NEVPT2 and variants, FIC-MRCI
   Bernardo de Souza      : ESD, SOC TD-DFT
   Georgi Stoychev        : AutoAux, RI-MP2 NMR, DLPNO-MP2 response, X2C
   Van Anh Tran           : RI-MP2 g-tensors
   Willem Van den Heuvel  : Paramagnetic NMR
   Zikuan Wang            : NOTCH, Electric field optimization 
   Frank Wennmohs         : Technical directorship and infrastructure
   Hang Xu                : AUTO-CI-Response properties 


 We gratefully acknowledge several colleagues who have allowed us to
 interface, adapt or use parts of their codes:
   Stefan Grimme, W. Hujo, H. Kruse, P. Pracht,  : VdW corrections, initial TS optimization,
                  C. Bannwarth, S. Ehlert,         DFT functionals, gCP, sTDA/sTD-DF
                  L. Wittmann, M. Mueller
   Ed Valeev, F. Pavosevic, A. Kumar             : LibInt (2-el integral package), F12 methods
   Garnet Chan, S. Sharma, J. Yang, R. Olivares  : DMRG
   Ulf Ekstrom                                   : XCFun DFT Library
   Mihaly Kallay                                 : mrcc  (arbitrary order and MRCC methods)
   Frank Weinhold                                : gennbo (NPA and NBO analysis)
   Simon Mueller                                 : openCOSMO-RS
   Christopher J. Cramer and Donald G. Truhlar   : smd solvation model
   Lars Goerigk                                  : TD-DFT with DH, B97 family of functionals
   V. Asgeirsson, H. Jonsson                     : NEB implementation
   FAccTs GmbH                                   : IRC, NEB, NEB-TS, DLPNO-Multilevel, CI-OPT
                                                   MM, QMMM, 2- and 3-layer-ONIOM, Crystal-QMMM,
                                                   LR-CPCM, SF, NACMEs, symmetry and pop. for TD-DFT,
                                                   nearIR, NL-DFT gradient (VV10), updates on ESD,
                                                   ML-optimized integration grids, MBIS, APM,
                                                   GOAT, DOCKER, SOLVATOR, interface openCOSMO-RS
   S Lehtola, MJT Oliveira, MAL Marques          : LibXC Library
   Liviu Ungur et al                             : ANISO software


 Your calculation uses the libint2 library for the computation of 2-el integrals
 For citations please refer to: http://libint.valeyev.net

 Your ORCA version has been built with support for libXC version: 6.2.2
 For citations please refer to: https://libxc.gitlab.io

 This ORCA versions uses:
   CBLAS   interface :  Fast vector & matrix operations
   LAPACKE interface :  Fast linear algebra routines
   SCALAPACK package :  Parallel linear algebra routines
   Shared memory     :  Shared parallel matrices
   BLAS/LAPACK       :  OpenBLAS 0.3.27  USE64BITINT DYNAMIC_ARCH NO_AFFINITY Zen SINGLE_THREADED
        Core in use  :  Zen
   Copyright (c) 2011-2014, The OpenBLAS Project


NOTE: MaxCore=2000 MB was set to SCF,MP2,MDCI,CIPSI,MRCI and CIS
      => If you want to overwrite this, your respective input block should be placed after the MaxCore statement


***************************************
The coordinates will be read from file: piperadine_c000.xyz
***************************************


Warning: RI is on but no J-basis has been assigned. Assigning Def2/J (nothing to worry about!)
================================================================================

----- Orbital basis set information -----
Your calculation utilizes the basis: def2-TZVP
   F. Weigend and R. Ahlrichs, Phys. Chem. Chem. Phys. 7, 3297 (2005).

----- AuxJ basis set information -----
Your calculation utilizes the auxiliary basis: def2/J
   F. Weigend, Phys. Chem. Chem. Phys. 8, 1057 (2006).

================================================================================
                                        WARNINGS
                       Please study these warnings very carefully!
================================================================================


WARNING: Geometry Optimization
  ===> : Switching off AutoStart
         For restart on a previous wavefunction, please use MOREAD



***************************************
The coordinates will be read from file: geo_opt_tzvp.xyz
***************************************


Warning: RI is on but no J-basis has been assigned. Assigning Def2/J (nothing to worry about!)
================================================================================

----- Orbital basis set information -----
Your calculation utilizes the basis: def2-TZVPD
   F. Weigend and R. Ahlrichs, Phys. Chem. Chem. Phys. 7, 3297 (2005).
   D. Rappoport and F. Furche, J. Chem. Phys. 133, 134105 (2010)
   D. Rappoport, J. Chem. Phys. 155, 124102 (2021).

----- AuxJ basis set information -----
Your calculation utilizes the auxiliary basis: def2/J
   F. Weigend, Phys. Chem. Chem. Phys. 8, 1057 (2006).

================================================================================
                                        WARNINGS
                       Please study these warnings very carefully!
================================================================================


================================================================================
                                       INPUT FILE
================================================================================
NAME = input.dat
|  1> %MaxCore 2000
|  2> 
|  3> %base "geo_opt_tzvp"
|  4> 
|  5> %cpcm
|  6> radius[1]  1.3
|  7> radius[2]  1.601
|  8> radius[5]  2.048
|  9> radius[6]  2.0
| 10> radius[7]  1.83
| 11> radius[8]  1.72
| 12> radius[9]  1.72
| 13> radius[10]  1.771
| 14> radius[13]  2.152
| 15> radius[14]  2.2
| 16> radius[15]  2.106
| 17> radius[16]  2.16
| 18> radius[17]  2.05
| 19> radius[18]  2.184
| 20> radius[22]  2.261
| 21> radius[26]  2.195
| 22> radius[27]  2.153
| 23> radius[31]  2.172
| 24> radius[32]  2.7
| 25> radius[33]  2.148
| 26> radius[34]  2.2
| 27> radius[35]  2.16
| 28> radius[36]  2.354
| 29> radius[49]  2.245
| 30> radius[50]  2.55
| 31> radius[51]  2.402
| 32> radius[53]  2.32
| 33> radius[54]  2.524
| 34> radius[80]  1.978
| 35> radius[82]  2.36
| 36> radius[86]  2.573
| 37> cut_area 0.03571064825863687
| 38> end
| 39> 
| 40> ! OPT CPCM BP86 def2-TZVP PAL16
| 41> 
| 42> * xyzfile 0 1 piperadine_c000.xyz
| 43> 
| 44> $new_job
| 45> 
| 46> ! CPCM BP86 def2-TZVPD SP PAL16
| 47> 
| 48> %base "single_point_tzvpd"
| 49> 
| 50> * xyzfile 0 1 geo_opt_tzvp.xyz
| 51> 
| 52>                          ****END OF INPUT****
================================================================================


                 $$$$$$$$$$$$$$$$$$$$$$$$$$$$$$$$$$$$$$$$$$$$$$ 
                 $ THERE ARE  2 JOBS TO BE PROCESSED THIS RUN $
                 $$$$$$$$$$$$$$$$$$$$$$$$$$$$$$$$$$$$$$$$$$$$$$ 




                 $$$$$$$$$$$$$$$$  JOB NUMBER  1 $$$$$$$$$$$$$$


                       *****************************
                       * Geometry Optimization Run *
                       *****************************

Geometry optimization settings:
Update method            Update   .... BFGS
Choice of coordinates    CoordSys .... (2022) Redundant Internals
Initial Hessian          InHess   .... Almloef's Model
Max. no of cycles        MaxIter  .... 51

Convergence Tolerances:
Energy Change            TolE     ....  5.0000e-06 Eh
Max. Gradient            TolMAXG  ....  3.0000e-04 Eh/bohr
RMS Gradient             TolRMSG  ....  1.0000e-04 Eh/bohr
Max. Displacement        TolMAXD  ....  4.0000e-03 bohr
RMS Displacement         TolRMSD  ....  2.0000e-03 bohr
Strict Convergence                .... False

------------------------------------------------------------------------------
                        ORCA OPTIMIZATION COORDINATE SETUP
------------------------------------------------------------------------------

The optimization will be done in redundant internal coordinates (2022)
Making redundant internal coordinates   ...  (2022 redundants) done
Evaluating the initial hessian          ...  (Almloef) done
Evaluating the coordinates              ...  done
Calculating the B-matrix                .... done
Calculating the G-matrix                .... done
Diagonalizing the G-matrix              .... done
The first mode is                       ....   39
The number of degrees of freedom        ....   45

    -----------------------------------------------------------------
                    Redundant Internal Coordinates


    -----------------------------------------------------------------
         Definition                    Initial Value    Approx d2E/dq
    -----------------------------------------------------------------
      1. B(C   1,C   0)                  1.5362         0.365122   
      2. B(C   2,C   1)                  1.5313         0.371755   
      3. B(N   3,C   2)                  1.4746         0.410159   
      4. B(C   4,N   3)                  1.4746         0.410084   
      5. B(C   5,C   4)                  1.5311         0.372029   
      6. B(C   5,C   0)                  1.5362         0.365213   
      7. B(H   6,C   0)                  1.1013         0.345483   
      8. B(H   7,C   0)                  1.1045         0.341360   
      9. B(H   8,C   1)                  1.1013         0.345404   
     10. B(H   9,C   1)                  1.1035         0.342713   
     11. B(H  10,C   2)                  1.1128         0.331140   
     12. B(H  11,C   2)                  1.1006         0.346342   
     13. B(H  12,N   3)                  1.0230         0.412526   
     14. B(H  13,C   4)                  1.1129         0.331093   
     15. B(H  14,C   4)                  1.1006         0.346351   
     16. B(H  15,C   5)                  1.1014         0.345386   
     17. B(H  16,C   5)                  1.1034         0.342752   
     18. A(C   1,C   0,H   6)          110.5709         0.320918   
     19. A(C   1,C   0,C   5)          110.9115         0.360539   
     20. A(C   5,C   0,H   7)          108.9761         0.320301   
     21. A(C   5,C   0,H   6)          110.5773         0.320931   
     22. A(H   6,C   0,H   7)          106.7500         0.286551   
     23. A(C   1,C   0,H   7)          108.9381         0.320288   
     24. A(C   0,C   1,H   9)          109.6988         0.320495   
     25. A(C   2,C   1,H   8)          109.6082         0.321853   
     26. A(C   0,C   1,H   8)          110.5989         0.320905   
     27. A(C   2,C   1,H   9)          108.9300         0.321441   
     28. A(H   8,C   1,H   9)          107.2059         0.286718   
     29. A(C   0,C   1,C   2)          110.7180         0.361632   
     30. A(H  10,C   2,H  11)          107.3694         0.285307   
     31. A(N   3,C   2,H  11)          108.4591         0.325278   
     32. A(N   3,C   2,H  10)          111.6214         0.322889   
     33. A(C   1,C   2,H  10)          108.7470         0.319641   
     34. A(C   1,C   2,N   3)          109.9560         0.366602   
     35. A(C   1,C   2,H  11)          110.6649         0.321996   
     36. A(C   2,N   3,C   4)          111.0248         0.370501   
     37. A(C   4,N   3,H  12)          108.7481         0.331942   
     38. A(C   2,N   3,H  12)          108.7431         0.331953   
     39. A(H  13,C   4,H  14)          107.3574         0.285302   
     40. A(N   3,C   4,H  14)          108.4579         0.325269   
     41. A(C   5,C   4,H  13)          108.7235         0.319672   
     42. A(N   3,C   4,H  13)          111.6516         0.322872   
     43. A(C   5,C   4,H  14)          110.6806         0.322036   
     44. A(N   3,C   4,C   5)          109.9474         0.366637   
     45. A(C   0,C   5,H  16)          109.6864         0.320515   
     46. A(C   4,C   5,H  15)          109.6006         0.321889   
     47. A(C   0,C   5,H  15)          110.6064         0.320916   
     48. A(C   0,C   5,C   4)          110.6957         0.361693   
     49. A(H  15,C   5,H  16)          107.2307         0.286721   
     50. A(C   4,C   5,H  16)          108.9415         0.321485   
     51. D(H   8,C   1,C   0,H   6)     62.9056         0.010675   
     52. D(H   8,C   1,C   0,C   5)   -174.0508         0.010675   
     53. D(C   2,C   1,C   0,H   6)   -175.3958         0.010675   
     54. D(C   2,C   1,C   0,C   5)    -52.3522         0.010675   
     55. D(H   8,C   1,C   0,H   7)    -54.1086         0.010675   
     56. D(C   2,C   1,C   0,H   7)     67.5901         0.010675   
     57. D(N   3,C   2,C   1,C   0)     56.7196         0.011042   
     58. D(H  10,C   2,C   1,H   9)    173.5151         0.011042   
     59. D(H  10,C   2,C   1,C   0)    -65.7742         0.011042   
     60. D(N   3,C   2,C   1,H   9)    -63.9911         0.011042   
     61. D(H  10,C   2,C   1,H   8)     56.5050         0.011042   
     62. D(N   3,C   2,C   1,H   8)    178.9988         0.011042   
     63. D(C   4,N   3,C   2,H  11)    176.7433         0.014351   
     64. D(C   4,N   3,C   2,C   1)    -62.1246         0.014351   
     65. D(C   4,N   3,C   2,H  10)     58.6538         0.014351   
     66. D(H  12,N   3,C   2,H  10)    -60.9525         0.014351   
     67. D(H  12,N   3,C   2,C   1)    178.2692         0.014351   
     68. D(H  14,C   4,N   3,C   2)   -176.6831         0.014346   
     69. D(H  13,C   4,N   3,H  12)     61.0120         0.014346   
     70. D(H  13,C   4,N   3,C   2)    -58.5913         0.014346   
     71. D(C   5,C   4,N   3,H  12)   -178.2253         0.014346   
     72. D(C   5,C   4,N   3,C   2)     62.1715         0.014346   
     73. D(C   0,C   5,C   4,H  13)     65.7103         0.011057   
     74. D(C   0,C   5,C   4,N   3)    -56.8002         0.011057   
     75. D(H  15,C   5,C   0,H   7)     54.1484         0.010680   
     76. D(H  15,C   5,C   0,H   6)    -62.8921         0.010680   
     77. D(H  15,C   5,C   0,C   1)    174.0680         0.010680   
     78. D(C   4,C   5,C   0,H   7)    -67.5306         0.010680   
     79. D(C   4,C   5,C   0,H   6)    175.4289         0.010680   
     80. D(C   0,C   5,C   4,H  14)   -176.6027         0.011057   
     81. D(C   4,C   5,C   0,C   1)     52.3890         0.010680   
     82. D(H  15,C   5,C   4,H  14)     61.1286         0.011057   
     83. D(H  15,C   5,C   4,H  13)    -56.5584         0.011057   
     84. D(H  15,C   5,C   4,N   3)   -179.0689         0.011057   
    -----------------------------------------------------------------

Number of atoms                         .... 17
Number of degrees of freedom            .... 84


         *************************************************************
         *                GEOMETRY OPTIMIZATION CYCLE   1            *
         *************************************************************
---------------------------------
CARTESIAN COORDINATES (ANGSTROEM)
---------------------------------
  C      0.629536    1.234811   -0.105097
  C     -0.901795    1.127814   -0.045268
  C     -1.366633   -0.256072   -0.507604
  N     -0.726517   -1.301693    0.311713
  C      0.739541   -1.272469    0.155767
  C      1.290382    0.069281    0.646313
  H      0.966292    2.200003    0.304557
  H      0.949715    1.208425   -1.161892
  H     -1.369193    1.903264   -0.672301
  H     -1.246089    1.293745    0.989902
  H     -1.121784   -0.373532   -1.586781
  H     -2.458215   -0.353186   -0.405889
  H     -1.071452   -2.215277    0.006889
  H      1.042547   -1.416584   -0.905307
  H      1.168274   -2.103979    0.735502
  H      2.383275    0.091376    0.511848
  H      1.092116    0.164073    1.727648

----------------------------
CARTESIAN COORDINATES (A.U.)
----------------------------
  NO LB      ZA    FRAG     MASS         X           Y           Z
   0 C     6.0000    0    12.011    1.189651    2.333455   -0.198604
   1 C     6.0000    0    12.011   -1.704146    2.131259   -0.085545
   2 C     6.0000    0    12.011   -2.582562   -0.483906   -0.959232
   3 N     7.0000    0    14.007   -1.372917   -2.459843    0.589052
   4 C     6.0000    0    12.011    1.397530   -2.404618    0.294356
   5 C     6.0000    0    12.011    2.438468    0.130922    1.221355
   6 H     1.0000    0     1.008    1.826027    4.157404    0.575530
   7 H     1.0000    0     1.008    1.794701    2.283592   -2.195657
   8 H     1.0000    0     1.008   -2.587400    3.596648   -1.270466
   9 H     1.0000    0     1.008   -2.354766    2.444823    1.870643
  10 H     1.0000    0     1.008   -2.119865   -0.705874   -2.998582
  11 H     1.0000    0     1.008   -4.645354   -0.667424   -0.767020
  12 H     1.0000    0     1.008   -2.024750   -4.186266    0.013019
  13 H     1.0000    0     1.008    1.970129   -2.676956   -1.710782
  14 H     1.0000    0     1.008    2.207719   -3.975944    1.389897
  15 H     1.0000    0     1.008    4.503738    0.172676    0.967253
  16 H     1.0000    0     1.008    2.063800    0.310054    3.264782

--------------------------------
INTERNAL COORDINATES (ANGSTROEM)
--------------------------------
 C      0   0   0     0.000000000000     0.00000000     0.00000000
 C      1   0   0     1.536230308859     0.00000000     0.00000000
 C      2   1   0     1.531328873100   110.71801423     0.00000000
 N      3   2   1     1.474568170749   109.95603751    56.71958021
 C      4   3   2     1.474617823141   111.02476577   297.87544861
 C      5   4   3     1.531128553230   109.94742598    62.17145470
 H      1   2   3     1.101279871612   110.57092646   184.60421306
 H      1   2   3     1.104547953468   108.93807385    67.59006315
 H      2   1   3     1.101342351513   110.59888952   238.30138628
 H      2   1   3     1.103471037481   109.69879039   120.25290542
 H      3   2   1     1.112821896887   108.74696059   294.22580664
 H      3   2   1     1.100603725265   110.66493344   176.51921022
 H      4   3   2     1.023002040559   108.74314923   178.26919094
 H      5   4   3     1.112860658803   111.65163213   301.40868141
 H      5   4   3     1.100597102430   108.45785172   183.31688159
 H      6   5   4     1.101356431685   109.60060587   180.93105744
 H      6   5   4     1.103439894070   108.94153776    63.88866984

---------------------------
INTERNAL COORDINATES (A.U.)
---------------------------
 C      0   0   0     0.000000000000     0.00000000     0.00000000
 C      1   0   0     2.903054562373     0.00000000     0.00000000
 C      2   1   0     2.893792191124   110.71801423     0.00000000
 N      3   2   1     2.786530008513   109.95603751    56.71958021
 C      4   3   2     2.786623837936   111.02476577   297.87544861
 C      5   4   3     2.893413641432   109.94742598    62.17145470
 H      1   2   3     2.081117354146   110.57092646   184.60421306
 H      1   2   3     2.087293133838   108.93807385    67.59006315
 H      2   1   3     2.081235424048   110.59888952   238.30138628
 H      2   1   3     2.085258057554   109.69879039   120.25290542
 H      3   2   1     2.102928620946   108.74696059   294.22580664
 H      3   2   1     2.079839622724   110.66493344   176.51921022
 H      4   3   2     1.933193691099   108.74314923   178.26919094
 H      5   4   3     2.103001870354   111.65163213   301.40868141
 H      5   4   3     2.079827107380   108.45785172   183.31688159
 H      6   5   4     2.081262031718   109.60060587   180.93105744
 H      6   5   4     2.085199205036   108.94153776    63.88866984

---------------------
BASIS SET INFORMATION
---------------------
There are 3 groups of distinct atoms

 Group   1 Type C   : 11s6p2d1f contracted to 5s3p2d1f pattern {62111/411/11/1}
 Group   2 Type N   : 11s6p2d1f contracted to 5s3p2d1f pattern {62111/411/11/1}
 Group   3 Type H   : 5s1p contracted to 3s1p pattern {311/1}

Atom   0C    basis set group =>   1
Atom   1C    basis set group =>   1
Atom   2C    basis set group =>   1
Atom   3N    basis set group =>   2
Atom   4C    basis set group =>   1
Atom   5C    basis set group =>   1
Atom   6H    basis set group =>   3
Atom   7H    basis set group =>   3
Atom   8H    basis set group =>   3
Atom   9H    basis set group =>   3
Atom  10H    basis set group =>   3
Atom  11H    basis set group =>   3
Atom  12H    basis set group =>   3
Atom  13H    basis set group =>   3
Atom  14H    basis set group =>   3
Atom  15H    basis set group =>   3
Atom  16H    basis set group =>   3
---------------------------------
AUXILIARY/J BASIS SET INFORMATION
---------------------------------
There are 3 groups of distinct atoms

 Group   1 Type C   : 12s5p4d2f1g contracted to 6s4p3d1f1g pattern {711111/2111/211/2/1}
 Group   2 Type N   : 12s5p4d2f1g contracted to 6s4p3d1f1g pattern {711111/2111/211/2/1}
 Group   3 Type H   : 5s2p1d contracted to 3s1p1d pattern {311/2/1}

Atom   0C    basis set group =>   1
Atom   1C    basis set group =>   1
Atom   2C    basis set group =>   1
Atom   3N    basis set group =>   2
Atom   4C    basis set group =>   1
Atom   5C    basis set group =>   1
Atom   6H    basis set group =>   3
Atom   7H    basis set group =>   3
Atom   8H    basis set group =>   3
Atom   9H    basis set group =>   3
Atom  10H    basis set group =>   3
Atom  11H    basis set group =>   3
Atom  12H    basis set group =>   3
Atom  13H    basis set group =>   3
Atom  14H    basis set group =>   3
Atom  15H    basis set group =>   3
Atom  16H    basis set group =>   3


           ************************************************************
           *        Program running with 16 parallel MPI-processes    *
           *              working on a common directory               *
           ************************************************************
------------------------------------------------------------------------------
                             ORCA STARTUP CALCULATIONS
                           -- RI-GTO INTEGRALS CHOSEN --
------------------------------------------------------------------------------
------------------------------------------------------------------------------
                   ___                                                        
                  /   \      - P O W E R E D   B Y -                         
                 /     \                                                     
                 |  |  |   _    _      __       _____    __    __             
                 |  |  |  | |  | |    /  \     |  _  \  |  |  /  |          
                  \  \/   | |  | |   /    \    | | | |  |  | /  /          
                 / \  \   | |__| |  /  /\  \   | |_| |  |  |/  /          
                |  |  |   |  __  | /  /__\  \  |    /   |      \           
                |  |  |   | |  | | |   __   |  |    \   |  |\   \          
                \     /   | |  | | |  |  |  |  | |\  \  |  | \   \       
                 \___/    |_|  |_| |__|  |__|  |_| \__\ |__|  \__/        
                                                                              
                      - O R C A' S   B I G   F R I E N D -                    
                                      &                                       
                       - I N T E G R A L  F E E D E R -                       
                                                                              
 v1 FN, 2020, v2 2021, v3 2022-2024                                           
------------------------------------------------------------------------------


----------------------
SHARK INTEGRAL PACKAGE
----------------------

Number of atoms                             ...     17
Number of basis functions                   ...    252
Number of shells                            ...    110
Maximum angular momentum                    ...      3
Integral batch strategy                     ... SHARK/LIBINT Hybrid
RI-J (if used) integral strategy            ... SPLIT-RIJ (Revised 2003 algorithm where possible)
Printlevel                                  ...      1
Contraction scheme used                     ... SEGMENTED contraction
Prescreening option                         ... SCHWARTZ
   Thresh                                   ... 2.500e-11
   Tcut                                     ... 2.500e-12
   Tpresel                                  ... 2.500e-12 
Coulomb Range Separation                    ... NOT USED
Exchange Range Separation                   ... NOT USED
Multipole approximations                    ... NOT USED
Finite Nucleus Model                        ... NOT USED
CABS basis                                  ... NOT available
Auxiliary Coulomb fitting basis             ... AVAILABLE
   # of basis functions in Aux-J            ...    415
   # of shells in Aux-J                     ...    145
   Maximum angular momentum in Aux-J        ...      4
Auxiliary J/K fitting basis                 ... NOT available
Auxiliary Correlation fitting basis         ... NOT available
Auxiliary 'external' fitting basis          ... NOT available

Checking pre-screening integrals            ... done (  0.0 sec) Dimension = 110
Check shell pair data                       ... done (  0.0 sec)
Shell pair information
Shell pair cut-off parameter TPreSel        ...   2.5e-12
Total number of shell pairs                 ...      6105
Shell pairs after pre-screening             ...      5904
Total number of primitive shell pairs       ...     17556
Primitive shell pairs kept                  ...     13469
          la=0 lb=0:   1892 shell pairs
          la=1 lb=0:   1768 shell pairs
          la=1 lb=1:    432 shell pairs
          la=2 lb=0:    741 shell pairs
          la=2 lb=1:    348 shell pairs
          la=2 lb=2:     78 shell pairs
          la=3 lb=0:    378 shell pairs
          la=3 lb=1:    174 shell pairs
          la=3 lb=2:     72 shell pairs
          la=3 lb=3:     21 shell pairs

Calculating one electron integrals          ... done (  0.0 sec)
Calculating RI/J V-Matrix + Cholesky decomp.... done (  0.0 sec)
Calculating Nuclear repulsion               ... done (  0.0 sec) ENN=    257.884212728480 Eh

Diagonalization of the overlap matrix:
Smallest eigenvalue                        ... 1.295e-04
Time for diagonalization                   ...    0.006 sec
Threshold for overlap eigenvalues          ... 1.000e-07
Number of eigenvalues below threshold      ... 0
Time for construction of square roots      ...    0.003 sec
Total time needed                          ...    0.010 sec

-------------------
DFT GRID GENERATION
-------------------

General Integration Accuracy     IntAcc      ... 4.388
Radial Grid Type                 RadialGrid  ... OptM3 with GC (2021)
Angular Grid (max. ang.)         AngularGrid ... 4 (Lebedev-302)
Angular grid pruning method      GridPruning ... 4 (adaptive)
Weight generation scheme         WeightScheme... mBecke (2022)
Basis function cutoff            BFCut       ... 1.0000e-11
Integration weight cutoff        WCut        ... 1.0000e-14
Partially contracted basis set               ... off
Rotationally invariant grid construction     ... off
Angular grids for H and He will be reduced by one unit

Total number of grid points                  ...    71174
Total number of batches                      ...     1120
Average number of points per batch           ...       63
Average number of grid points per atom       ...     4187
Initializing property integral containers    ... done (  0.0 sec)

SHARK setup successfully completed in   0.5 seconds

Maximum memory used throughout the entire STARTUP-calculation: 22.5 MB


           ************************************************************
           *        Program running with 16 parallel MPI-processes    *
           *              working on a common directory               *
           ************************************************************
-------------------------------------------------------------------------------
                                 ORCA GUESS
                   Start orbitals & Density for SCF / CASSCF
-------------------------------------------------------------------------------

------------
SCF SETTINGS
------------
Hamiltonian:
 Density Functional     Method          .... DFT(GTOs)
 Exchange Functional    Exchange        .... B88
   X-Alpha parameter    XAlpha          ....  0.666667
   Becke's b parameter  XBeta           ....  0.004200
 Correlation Functional Correlation     .... P86
 LDA part of GGA corr.  LDAOpt          .... PW91-LDA
 Gradients option       PostSCFGGA      .... off
   NL short-range parameter             ....  4.400000
 RI-approximation to the Coulomb term is turned on
   Number of AuxJ basis functions       .... 415


General Settings:
 Integral files         IntName         .... geo_opt_tzvp
 Hartree-Fock type      HFTyp           .... RHF
 Total Charge           Charge          ....    0
 Multiplicity           Mult            ....    1
 Number of Electrons    NEL             ....   48
 Basis Dimension        Dim             ....  252
 Nuclear Repulsion      ENuc            ....    257.8842127285 Eh

Convergence Acceleration:
 AO-DIIS                CNVDIIS         .... on
   Start iteration      DIISMaxIt       ....    12
   Startup error        DIISStart       ....  0.200000
   # of expansion vecs  DIISMaxEq       ....     5
   Bias factor          DIISBfac        ....   1.050
   Max. coefficient     DIISMaxC        ....  10.000
 MO-DIIS                CNVKDIIS        .... off
 Trust-Rad. Augm. Hess. CNVTRAH         .... auto
   Auto Start mean grad. ratio tolernc. ....  1.125000
   Auto Start start iteration           ....    50
   Auto Start num. interpolation iter.  ....    10
   Max. Number of Micro iterations      ....    24
   Max. Number of Macro iterations      .... Maxiter - #DIIS iter
   Number of Davidson start vectors     ....     2
   Converg. threshold    (grad. norm)   ....   1.000e-05
   Grad. Scal. Fac. for Micro threshold ....   0.100
   Minimum threshold for Micro iter.    ....   1.000e-02
   NR start threshold (gradient norm)   ....   1.000e-04
   Initial trust radius                 ....   0.400
   Minimum AH scaling param. (alpha)    ....   1.000
   Maximum AH scaling param. (alpha)    .... 1000.000
   Quad. conv. algorithm                .... NR
   White noise on init. David. guess    .... on
   Maximum white noise                  ....   0.010
   Pseudo random numbers                .... off
   Inactive MOs                         .... canonical
   Orbital update algorithm             .... Taylor
   Preconditioner                       .... Diag
   Full preconditioner red. dimension   ....   250
 SOSCF                  CNVSOSCF        .... on
   Start iteration      SOSCFMaxIt      ....   150
   Startup grad/error   SOSCFStart      ....  0.003300
   Hessian update       SOSCFHessUp     .... L-BFGS
 Level Shifting         CNVShift        .... on
   Level shift para.    LevelShift      ....    0.2500
   Turn off err/grad.   ShiftErr        ....    0.0010
 Zerner damping         CNVZerner       .... off
 Static damping         CNVDamp         .... on
   Fraction old density DampFac         ....    0.7000
   Max. Damping (<1)    DampMax         ....    0.9800
   Min. Damping (>=0)   DampMin         ....    0.0000
   Turn off err/grad.   DampErr         ....    0.1000

SCF Procedure:
 Maximum # iterations   MaxIter         ....   125
 SCF integral mode      SCFMode         .... Direct
   Integral package                     .... SHARK and LIBINT hybrid scheme
 Reset frequency        DirectResetFreq ....    20
 Integral Threshold     Thresh          ....  2.500e-11 Eh
 Primitive CutOff       TCut            ....  2.500e-12 Eh

Convergence Tolerance:
 Convergence Check Mode ConvCheckMode   .... Total+1el-Energy
 Convergence forced     ConvForced      .... 0
 Energy Change          TolE            ....  1.000e-08 Eh
 1-El. energy change                    ....  1.000e-05 Eh
 Orbital Gradient       TolG            ....  1.000e-05
 Orbital Rotation angle TolX            ....  1.000e-05
 DIIS Error             TolErr          ....  5.000e-07

------------------------------
INITIAL GUESS: MODEL POTENTIAL
------------------------------
Loading Hartree-Fock densities                     ... done
Calculating cut-offs                               ... done
Initializing the effective Hamiltonian             ... done
Setting up the integral package (SHARK)            ... done
Starting the Coulomb interaction                   ... done (   0.0 sec)
Making the grid                                    ... done (   0.1 sec)
Mapping shells                                     ... done
Starting the XC term evaluation                    ... done (   0.1 sec)
  promolecular density results
     # of electrons  =     47.997316007
     EX              =    -35.554664015
     EC              =     -1.720254966
     EX+EC           =    -37.274918981
Transforming the Hamiltonian                       ... done (   0.0 sec)
Diagonalizing the Hamiltonian                      ... done (   0.0 sec)
Back transforming the eigenvectors                 ... done (   0.0 sec)
Now organizing SCF variables                       ... done
                      ------------------
                      INITIAL GUESS DONE (   0.2 sec)
                      ------------------
             **** ENERGY FILE WAS UPDATED (geo_opt_tzvp.en.tmp) ****
Finished Guess after   0.9 sec
Maximum memory used throughout the entire GUESS-calculation: 14.8 MB


           ************************************************************
           *        Program running with 16 parallel MPI-processes    *
           *              working on a common directory               *
           ************************************************************

-------------------------------------------------------------------------------------------
                                      ORCA LEAN-SCF
                              memory conserving SCF solver
-------------------------------------------------------------------------------------------

--------------------
CPCM SOLVATION MODEL
--------------------
CPCM parameters:
  Epsilon                                         ...     INFINITY
  Refrac                                          ...       1.3300
  Rsolv                                           ...       1.3000
  Surface type                                    ... GAUSSIAN VDW
  Discretization scheme                           ... Constant charge density
    Threshold for H atoms                         ...       5.0000 (charges/Ang^2)
    Threshold for non-H atoms                     ...       5.0000 (charges/Ang^2)
  Epsilon function type                           ...         CPCM
Solvent:                                          ... CONDUCTOR
Radii:
  Scheme                                          ... Element-dependent radii
  Radius for C  used is    3.7795 Bohr (=   2.0000 Ang.)
  Radius for N  used is    3.4582 Bohr (=   1.8300 Ang.)
  Radius for H  used is    2.4566 Bohr (=   1.3000 Ang.)
Calculating surface                               ...        done! (  0.0s)
Cavity surface points                             ...          943
Cavity Volume                                     ...     801.4535
Cavity Surface-area                               ...     478.7354
Calculating surface distance matrix               ...        done! (  0.0s)
Performing Cholesky decomposition & store         ...        done! (  0.0s)
Overall time for CPCM initialization              ...                 0.0s

----------------------------------------D-I-I-S--------------------------------------------
Iteration    Energy (Eh)           Delta-E    RMSDP     MaxDP     DIISErr   Damp  Time(sec)
-------------------------------------------------------------------------------------------
               ***  Starting incremental Fock matrix formation  ***
    1    -251.8011476319712187     0.00e+00  1.74e-03  6.05e-02  1.98e-01  0.700   0.4
    2    -251.8996722629663623    -9.85e-02  1.32e-03  3.94e-02  7.90e-02  0.700   0.4
                               ***Turning on AO-DIIS***
    3    -251.9314144401523095    -3.17e-02  5.50e-04  1.06e-02  1.92e-02  0.700   0.4
    4    -251.9508587055854605    -1.94e-02  8.22e-04  1.71e-02  1.06e-02  0.000   0.4
    5    -251.9965000275634566    -4.56e-02  2.97e-04  8.56e-03  1.27e-02  0.000   0.4
                              *** Initializing SOSCF ***
---------------------------------------S-O-S-C-F--------------------------------------
Iteration    Energy (Eh)           Delta-E    RMSDP     MaxDP     MaxGrad    Time(sec)
--------------------------------------------------------------------------------------
    6    -251.9972038480361221    -7.04e-04  1.30e-04  2.42e-03  2.66e-03     0.4
               *** Restarting incremental Fock matrix formation ***
    7    -251.9972685919807986    -6.47e-05  1.26e-04  2.46e-03  3.06e-04     0.4
    8    -251.9972633925635250     5.20e-06  3.00e-05  1.30e-03  6.02e-04     0.4
    9    -251.9972751791841574    -1.18e-05  1.43e-05  2.57e-04  5.56e-05     0.3
   10    -251.9972753083839052    -1.29e-07  3.92e-06  6.66e-05  4.41e-05     0.3
   11    -251.9972754177593401    -1.09e-07  1.48e-06  2.92e-05  9.34e-06     0.3
   12    -251.9972754097521488     8.01e-09  6.59e-07  1.32e-05  1.09e-05     0.3
                 **** Energy Check signals convergence ****

               *****************************************************
               *                     SUCCESS                       *
               *           SCF CONVERGED AFTER  12 CYCLES          *
               *****************************************************

             **** ENERGY FILE WAS UPDATED (geo_opt_tzvp.en.tmp) ****

----------------
TOTAL SCF ENERGY
----------------

Total Energy       :       -251.99727540975215 Eh           -6857.19448 eV

Components:
Nuclear Repulsion  :        257.88421272847961 Eh            7017.38619 eV
Electronic Energy  :       -509.87524788092003 Eh          -13874.41086 eV
One Electron Energy:       -849.80566204950355 Eh          -23124.38769 eV
Two Electron Energy:        339.93041416858352 Eh            9249.97683 eV
CPCM Dielectric    :         -0.00624025731173 Eh              -0.16981 eV

Virial components:
Potential Energy   :       -502.62634043527248 Eh          -13677.15806 eV
Kinetic Energy     :        250.62906502552033 Eh            6819.96358 eV
Virial Ratio       :          2.00545910500880

DFT components:
N(Alpha)           :       24.000078318069 electrons
N(Beta)            :       24.000078318069 electrons
N(Total)           :       48.000156636138 electrons
E(X)               :      -36.497542487684 Eh       
E(C)               :       -1.712168947152 Eh       
E(XC)              :      -38.209711434836 Eh       

CPCM Solvation Model Properties:
Surface-charge          :         -0.03254399351405
Corrected charge        :         -0.00000000000000
Outlying charge corr.   :          0.00008862412926 Eh               0.00241 eV
Free-energy (cav+disp)  :  This term is not implemented in the current solvation scheme

---------------
SCF CONVERGENCE
---------------

  Last Energy change         ...   -8.0072e-09  Tolerance :   1.0000e-08
  Last MAX-Density change    ...    1.3220e-05  Tolerance :   1.0000e-07
  Last RMS-Density change    ...    6.5886e-07  Tolerance :   5.0000e-09
  Last DIIS Error            ...    2.6646e-03  Tolerance :   5.0000e-07
  Last Orbital Gradient      ...    1.0886e-05  Tolerance :   1.0000e-05
  Last Orbital Rotation      ...    9.1961e-06  Tolerance :   1.0000e-05


----------------
ORBITAL ENERGIES
----------------

  NO   OCC          E(Eh)            E(eV) 
   0   2.0000     -13.982312      -380.4781 
   1   2.0000      -9.909707      -269.6568 
   2   2.0000      -9.909680      -269.6561 
   3   2.0000      -9.885871      -269.0082 
   4   2.0000      -9.885196      -268.9899 
   5   2.0000      -9.885162      -268.9889 
   6   2.0000      -0.824771       -22.4432 
   7   2.0000      -0.707668       -19.2566 
   8   2.0000      -0.675075       -18.3697 
   9   2.0000      -0.567714       -15.4483 
  10   2.0000      -0.552107       -15.0236 
  11   2.0000      -0.489344       -13.3157 
  12   2.0000      -0.454792       -12.3755 
  13   2.0000      -0.399768       -10.8782 
  14   2.0000      -0.398741       -10.8503 
  15   2.0000      -0.372371       -10.1327 
  16   2.0000      -0.357934        -9.7399 
  17   2.0000      -0.352380        -9.5888 
  18   2.0000      -0.335230        -9.1221 
  19   2.0000      -0.300057        -8.1650 
  20   2.0000      -0.282713        -7.6930 
  21   2.0000      -0.270179        -7.3519 
  22   2.0000      -0.268674        -7.3110 
  23   2.0000      -0.192311        -5.2330 
  24   0.0000       0.023409         0.6370 
  25   0.0000       0.046589         1.2677 
  26   0.0000       0.057402         1.5620 
  27   0.0000       0.058679         1.5967 
  28   0.0000       0.077886         2.1194 
  29   0.0000       0.091060         2.4779 
  30   0.0000       0.094378         2.5682 
  31   0.0000       0.103315         2.8114 
  32   0.0000       0.106840         2.9073 
  33   0.0000       0.115031         3.1302 
  34   0.0000       0.118010         3.2112 
*Only the first 10 virtual orbitals were printed.

                    ********************************
                    * MULLIKEN POPULATION ANALYSIS *
                    ********************************

-----------------------
MULLIKEN ATOMIC CHARGES
-----------------------
   0 C :   -0.180149
   1 C :   -0.187309
   2 C :   -0.151679
   3 N :   -0.373358
   4 C :   -0.151125
   5 C :   -0.187427
   6 H :    0.109377
   7 H :    0.095812
   8 H :    0.108461
   9 H :    0.087491
  10 H :    0.087292
  11 H :    0.117097
  12 H :    0.225403
  13 H :    0.087151
  14 H :    0.117068
  15 H :    0.108444
  16 H :    0.087451
Sum of atomic charges:    0.0000000

--------------------------------
MULLIKEN REDUCED ORBITAL CHARGES
--------------------------------
  0 C s       :     3.222765  s :     3.222765
      pz      :     0.989115  p :     2.865073
      px      :     0.909010
      py      :     0.966948
      dz2     :     0.017991  d :     0.087000
      dxz     :     0.019487
      dyz     :     0.005353
      dx2y2   :     0.020502
      dxy     :     0.023667
      f0      :     0.000824  f :     0.005311
      f+1     :     0.000483
      f-1     :     0.000614
      f+2     :     0.001039
      f-2     :     0.000168
      f+3     :     0.000845
      f-3     :     0.001339

  1 C s       :     3.221942  s :     3.221942
      pz      :     1.003191  p :     2.872905
      px      :     0.925929
      py      :     0.943785
      dz2     :     0.012293  d :     0.087033
      dxz     :     0.017849
      dyz     :     0.012236
      dx2y2   :     0.015761
      dxy     :     0.028895
      f0      :     0.000780  f :     0.005429
      f+1     :     0.000392
      f-1     :     0.000641
      f+2     :     0.000990
      f-2     :     0.000164
      f+3     :     0.001024
      f-3     :     0.001437

  2 C s       :     3.249578  s :     3.249578
      pz      :     0.935911  p :     2.787945
      px      :     1.008239
      py      :     0.843796
      dz2     :     0.033390  d :     0.106504
      dxz     :     0.004760
      dyz     :     0.023308
      dx2y2   :     0.027199
      dxy     :     0.017848
      f0      :     0.000872  f :     0.007652
      f+1     :     0.000740
      f-1     :     0.001723
      f+2     :     0.000927
      f-2     :     0.000926
      f+3     :     0.001322
      f-3     :     0.001143

  3 N s       :     3.520872  s :     3.520872
      pz      :     1.589778  p :     3.790719
      px      :     1.099411
      py      :     1.101530
      dz2     :     0.008318  d :     0.058760
      dxz     :     0.012176
      dyz     :     0.009192
      dx2y2   :     0.015388
      dxy     :     0.013686
      f0      :     0.000526  f :     0.003007
      f+1     :     0.000480
      f-1     :     0.000339
      f+2     :     0.000442
      f-2     :     0.000275
      f+3     :     0.000388
      f-3     :     0.000556

  4 C s       :     3.249167  s :     3.249167
      pz      :     1.015230  p :     2.787793
      px      :     0.785483
      py      :     0.987080
      dz2     :     0.016950  d :     0.106511
      dxz     :     0.027190
      dyz     :     0.011784
      dx2y2   :     0.022615
      dxy     :     0.027972
      f0      :     0.001233  f :     0.007653
      f+1     :     0.000705
      f-1     :     0.000647
      f+2     :     0.001530
      f-2     :     0.000238
      f+3     :     0.001465
      f-3     :     0.001836

  5 C s       :     3.222016  s :     3.222016
      pz      :     0.979751  p :     2.872978
      px      :     1.002418
      py      :     0.890809
      dz2     :     0.024309  d :     0.087002
      dxz     :     0.002561
      dyz     :     0.018525
      dx2y2   :     0.028919
      dxy     :     0.012688
      f0      :     0.000739  f :     0.005431
      f+1     :     0.000371
      f-1     :     0.001125
      f+2     :     0.000611
      f-2     :     0.000483
      f+3     :     0.001023
      f-3     :     0.001079

  6 H s       :     0.869429  s :     0.869429
      pz      :     0.005228  p :     0.021194
      px      :     0.005345
      py      :     0.010621

  7 H s       :     0.883319  s :     0.883319
      pz      :     0.011344  p :     0.020870
      px      :     0.005112
      py      :     0.004414

  8 H s       :     0.870397  s :     0.870397
      pz      :     0.006550  p :     0.021142
      px      :     0.006093
      py      :     0.008499

  9 H s       :     0.891535  s :     0.891535
      pz      :     0.011131  p :     0.020974
      px      :     0.005267
      py      :     0.004575

 10 H s       :     0.892378  s :     0.892378
      pz      :     0.011957  p :     0.020331
      px      :     0.004263
      py      :     0.004110

 11 H s       :     0.862311  s :     0.862311
      pz      :     0.004080  p :     0.020593
      px      :     0.012336
      py      :     0.004176

 12 H s       :     0.739003  s :     0.739003
      pz      :     0.011312  p :     0.035594
      px      :     0.008260
      py      :     0.016022

 13 H s       :     0.892518  s :     0.892518
      pz      :     0.011285  p :     0.020331
      px      :     0.004582
      py      :     0.004464

 14 H s       :     0.862339  s :     0.862339
      pz      :     0.006291  p :     0.020593
      px      :     0.005055
      py      :     0.009246

 15 H s       :     0.870419  s :     0.870419
      pz      :     0.004408  p :     0.021136
      px      :     0.012232
      py      :     0.004496

 16 H s       :     0.891570  s :     0.891570
      pz      :     0.012085  p :     0.020979
      px      :     0.004502
      py      :     0.004392



                     *******************************
                     * LOEWDIN POPULATION ANALYSIS *
                     *******************************

----------------------
LOEWDIN ATOMIC CHARGES
----------------------
   0 C :   -0.273739
   1 C :   -0.275710
   2 C :   -0.316836
   3 N :   -0.042532
   4 C :   -0.316818
   5 C :   -0.275762
   6 H :    0.136443
   7 H :    0.138124
   8 H :    0.139066
   9 H :    0.135902
  10 H :    0.119234
  11 H :    0.131492
  12 H :    0.175399
  13 H :    0.119241
  14 H :    0.131497
  15 H :    0.139073
  16 H :    0.135926

-------------------------------
LOEWDIN REDUCED ORBITAL CHARGES
-------------------------------
  0 C s       :     2.788153  s :     2.788153
      pz      :     1.027701  p :     3.055675
      px      :     1.015893
      py      :     1.012082
      dz2     :     0.086935  d :     0.392339
      dxz     :     0.075056
      dyz     :     0.042718
      dx2y2   :     0.098300
      dxy     :     0.089329
      f0      :     0.004723  f :     0.037572
      f+1     :     0.004364
      f-1     :     0.003496
      f+2     :     0.007067
      f-2     :     0.004150
      f+3     :     0.005522
      f-3     :     0.008251

  1 C s       :     2.790584  s :     2.790584
      pz      :     1.028264  p :     3.059566
      px      :     1.015812
      py      :     1.015490
      dz2     :     0.065277  d :     0.387963
      dxz     :     0.072709
      dyz     :     0.064342
      dx2y2   :     0.083948
      dxy     :     0.101687
      f0      :     0.004687  f :     0.037596
      f+1     :     0.003611
      f-1     :     0.003370
      f+2     :     0.006312
      f-2     :     0.004395
      f+3     :     0.006595
      f-3     :     0.008626

  2 C s       :     2.802459  s :     2.802459
      pz      :     1.002736  p :     2.987227
      px      :     1.008834
      py      :     0.975657
      dz2     :     0.146024  d :     0.475649
      dxz     :     0.028133
      dyz     :     0.103376
      dx2y2   :     0.121762
      dxy     :     0.076353
      f0      :     0.004126  f :     0.051502
      f+1     :     0.005310
      f-1     :     0.010220
      f+2     :     0.007381
      f-2     :     0.009298
      f+3     :     0.008216
      f-3     :     0.006952

  3 N s       :     3.027919  s :     3.027919
      pz      :     1.514736  p :     3.792349
      px      :     1.156406
      py      :     1.121206
      dz2     :     0.029632  d :     0.207657
      dxz     :     0.037802
      dyz     :     0.026457
      dx2y2   :     0.060155
      dxy     :     0.053611
      f0      :     0.001281  f :     0.014607
      f+1     :     0.001537
      f-1     :     0.001418
      f+2     :     0.003276
      f-2     :     0.001970
      f+3     :     0.002144
      f-3     :     0.002982

  4 C s       :     2.802419  s :     2.802419
      pz      :     1.044004  p :     2.987181
      px      :     0.906153
      py      :     1.037024
      dz2     :     0.082007  d :     0.475709
      dxz     :     0.115940
      dyz     :     0.060845
      dx2y2   :     0.111417
      dxy     :     0.105500
      f0      :     0.007017  f :     0.051508
      f+1     :     0.005182
      f-1     :     0.003426
      f+2     :     0.010641
      f-2     :     0.004859
      f+3     :     0.009244
      f-3     :     0.011139

  5 C s       :     2.790540  s :     2.790540
      pz      :     1.025953  p :     3.059569
      px      :     1.013438
      py      :     1.020179
      dz2     :     0.109701  d :     0.388037
      dxz     :     0.021167
      dyz     :     0.076205
      dx2y2   :     0.118269
      dxy     :     0.062695
      f0      :     0.003816  f :     0.037617
      f+1     :     0.003336
      f-1     :     0.006264
      f+2     :     0.005344
      f-2     :     0.006583
      f+3     :     0.006371
      f-3     :     0.005903

  6 H s       :     0.805368  s :     0.805368
      pz      :     0.015935  p :     0.058190
      px      :     0.014454
      py      :     0.027800

  7 H s       :     0.803943  s :     0.803943
      pz      :     0.031071  p :     0.057934
      px      :     0.014176
      py      :     0.012687

  8 H s       :     0.802790  s :     0.802790
      pz      :     0.019745  p :     0.058144
      px      :     0.016153
      py      :     0.022246

  9 H s       :     0.805947  s :     0.805947
      pz      :     0.030901  p :     0.058151
      px      :     0.014387
      py      :     0.012862

 10 H s       :     0.822842  s :     0.822842
      pz      :     0.033396  p :     0.057923
      px      :     0.012960
      py      :     0.011568

 11 H s       :     0.810856  s :     0.810856
      pz      :     0.012141  p :     0.057652
      px      :     0.033655
      py      :     0.011856

 12 H s       :     0.719161  s :     0.719161
      pz      :     0.037001  p :     0.105440
      px      :     0.022631
      py      :     0.045807

 13 H s       :     0.822842  s :     0.822842
      pz      :     0.032876  p :     0.057917
      px      :     0.012427
      py      :     0.012614

 14 H s       :     0.810851  s :     0.810851
      pz      :     0.019303  p :     0.057652
      px      :     0.013829
      py      :     0.024520

 15 H s       :     0.802789  s :     0.802789
      pz      :     0.013289  p :     0.058138
      px      :     0.032184
      py      :     0.012665

 16 H s       :     0.805922  s :     0.805922
      pz      :     0.031741  p :     0.058152
      px      :     0.013558
      py      :     0.012853



                      *****************************
                      * MAYER POPULATION ANALYSIS *
                      *****************************

  NA   - Mulliken gross atomic population
  ZA   - Total nuclear charge
  QA   - Mulliken gross atomic charge
  VA   - Mayer's total valence
  BVA  - Mayer's bonded valence
  FA   - Mayer's free valence

  ATOM       NA         ZA         QA         VA         BVA        FA
  0 C      6.1801     6.0000    -0.1801     3.8759     3.8759     0.0000
  1 C      6.1873     6.0000    -0.1873     3.9065     3.9065     0.0000
  2 C      6.1517     6.0000    -0.1517     3.9918     3.9918    -0.0000
  3 N      7.3734     7.0000    -0.3734     2.9486     2.9486    -0.0000
  4 C      6.1511     6.0000    -0.1511     3.9920     3.9920     0.0000
  5 C      6.1874     6.0000    -0.1874     3.9068     3.9068     0.0000
  6 H      0.8906     1.0000     0.1094     0.9635     0.9635     0.0000
  7 H      0.9042     1.0000     0.0958     0.9778     0.9778    -0.0000
  8 H      0.8915     1.0000     0.1085     0.9698     0.9698     0.0000
  9 H      0.9125     1.0000     0.0875     0.9867     0.9867     0.0000
 10 H      0.9127     1.0000     0.0873     0.9707     0.9707    -0.0000
 11 H      0.8829     1.0000     0.1171     0.9654     0.9654     0.0000
 12 H      0.7746     1.0000     0.2254     0.9350     0.9350    -0.0000
 13 H      0.9128     1.0000     0.0872     0.9707     0.9707    -0.0000
 14 H      0.8829     1.0000     0.1171     0.9654     0.9654     0.0000
 15 H      0.8916     1.0000     0.1084     0.9698     0.9698     0.0000
 16 H      0.9125     1.0000     0.0875     0.9868     0.9868     0.0000

  Mayer bond orders larger than 0.100000
B(  0-C ,  1-C ) :   0.9936 B(  0-C ,  5-C ) :   0.9934 B(  0-C ,  6-H ) :   0.9565 
B(  0-C ,  7-H ) :   0.9519 B(  1-C ,  2-C ) :   1.0026 B(  1-C ,  8-H ) :   0.9539 
B(  1-C ,  9-H ) :   0.9471 B(  2-C ,  3-N ) :   1.0071 B(  2-C , 10-H ) :   0.9548 
B(  2-C , 11-H ) :   0.9517 B(  3-N ,  4-C ) :   1.0069 B(  3-N , 12-H ) :   0.9105 
B(  4-C ,  5-C ) :   1.0027 B(  4-C , 13-H ) :   0.9548 B(  4-C , 14-H ) :   0.9517 
B(  5-C , 15-H ) :   0.9538 B(  5-C , 16-H ) :   0.9471 

-------
TIMINGS
-------

Total SCF time: 0 days 0 hours 0 min 5 sec 

Total time                  ....       5.534 sec
Sum of individual times     ....       5.334 sec  ( 96.4%)

SCF preparation             ....       0.902 sec  ( 16.3%)
Fock matrix formation       ....       3.962 sec  ( 71.6%)
  Startup                   ....       0.038 sec  (  1.0% of F)
  Split-RI-J                ....       0.620 sec  ( 15.7% of F)
  XC integration            ....       2.675 sec  ( 67.5% of F)
    XC Preparation          ....       0.000 sec  (  0.0% of XC)
    Basis function eval.    ....       0.245 sec  (  9.1% of XC)
    Density eval.           ....       0.197 sec  (  7.4% of XC)
    XC-Functional eval.     ....       0.036 sec  (  1.4% of XC)
    XC-Potential eval.      ....       0.339 sec  ( 12.7% of XC)
  CPCM terms                ....       0.497 sec  ( 12.5% of F)
Diagonalization             ....       0.000 sec  (  0.0%)
Density matrix formation    ....       0.066 sec  (  1.2%)
Total Energy calculation    ....       0.050 sec  (  0.9%)
Population analysis         ....       0.028 sec  (  0.5%)
Orbital Transformation      ....       0.040 sec  (  0.7%)
Orbital Orthonormalization  ....       0.000 sec  (  0.0%)
DIIS solution               ....       0.185 sec  (  3.3%)
SOSCF solution              ....       0.100 sec  (  1.8%)
Finished LeanSCF after   5.6 sec

Maximum memory used throughout the entire LEANSCF-calculation: 21.1 MB

-------------------------   --------------------
FINAL SINGLE POINT ENERGY      -251.997275409752
-------------------------   --------------------



           ************************************************************
           *        Program running with 16 parallel MPI-processes    *
           *              working on a common directory               *
           ************************************************************
------------------------------------------------------------------------------
                         ORCA SCF GRADIENT CALCULATION
------------------------------------------------------------------------------

Nuc. rep. gradient        (SHARK) ... done (  0.0 sec)
HCore & Overlap gradient  (SHARK) ... done (  0.0 sec)
Split-RIJ-J gradient      (SHARK) ... done (  0.2 sec)
XC gradient                       ... done (  0.7 sec)
CPCM gradient                     ... done (  0.1 sec)

------------------
CARTESIAN GRADIENT
------------------

   1   C   :    0.000070822    0.000069561   -0.000087532
   2   C   :   -0.000124552    0.000143976    0.000123960
   3   C   :    0.000000780    0.000057386   -0.000719765
   4   N   :   -0.000597486   -0.000369567    0.001382219
   5   C   :    0.000358110   -0.000120593   -0.000623230
   6   C   :    0.000092340    0.000038659    0.000220803
   7   H   :   -0.000010360   -0.000043383   -0.000006820
   8   H   :    0.000002885    0.000031012    0.000050780
   9   H   :    0.000027897   -0.000041113    0.000007427
  10   H   :    0.000006823    0.000033342   -0.000064035
  11   H   :   -0.000047607    0.000074445    0.000054277
  12   H   :    0.000039446    0.000009845    0.000017323
  13   H   :    0.000151300    0.000081781   -0.000369669
  14   H   :    0.000047793    0.000017335    0.000086271
  15   H   :   -0.000025291    0.000034356    0.000000769
  16   H   :   -0.000042484   -0.000024489   -0.000021701
  17   H   :    0.000049583    0.000007447   -0.000051078

Difference to translation invariance:
           :    0.0000000000    0.0000000000   -0.0000000000

Difference to rotation invariance:
           :    0.0002141809   -0.0000995008   -0.0001826436

Norm of the Cartesian gradient     ...    0.0019485148
RMS gradient                       ...    0.0002728467
MAX gradient                       ...    0.0013822187

-------
TIMINGS
-------

Total SCF gradient time     ....        1.188 sec

Densities                   ....       0.002 sec  (  0.2%)
One electron gradient       ....       0.041 sec  (  3.5%)
RI-J Coulomb gradient       ....       0.216 sec  ( 18.2%)
XC gradient                 ....       0.684 sec  ( 57.6%)
CPCM gradient               ....       0.107 sec  (  9.0%)
   A-Matrix (El+Nuc)        ....       0.032 sec  (  2.7%)
   Potential                ....       0.075 sec  (  6.3%)

Maximum memory used throughout the entire SCFGRAD-calculation: 28.9 MB
------------------------------------------------------------------------------
                         ORCA GEOMETRY RELAXATION STEP
------------------------------------------------------------------------------

Reading the OPT-File                    .... done
Getting information on internals        .... done
Copying old internal coords+grads       .... done
Making the new internal coordinates     .... (2022 redundants) done
Validating the new internal coordinates .... (2022 redundants) done
Calculating the B-matrix                .... done
Calculating the G,G- and P matrices     .... done
Transforming gradient to internals      .... done
Projecting the internal gradient        .... done
Number of atoms                         ....  17
Number of internal coordinates          ....  84
Current Energy                          ....  -251.997275410 Eh
Current gradient norm                   ....     0.001948515 Eh/bohr
Maximum allowed component of the step   ....  0.300
Current trust radius                    ....  0.300
Evaluating the initial hessian          ....  (Almloef) done
Projecting the Hessian                  .... done
Forming the augmented Hessian           .... done
Diagonalizing the augmented Hessian     .... done
Last element of RFO vector              ....  0.999950155
Lowest eigenvalues of augmented Hessian:
 -0.000007250  0.015847449  0.016251111  0.022489718  0.047528555
Length of the computed step             ....  0.009984838
The final length of the internal step   ....  0.009984838
Converting the step to Cartesian space:
 Initial RMS(Int)=    0.0010894351
Transforming coordinates:
 Iter   0:  RMS(Cart)=    0.0013379067 RMS(Int)=    0.0010902772
done
Storing new coordinates                 .... done

                                .--------------------.
          ----------------------|Geometry convergence|-------------------------
          Item                value                   Tolerance       Converged
          ---------------------------------------------------------------------
          RMS gradient        0.0001148202            0.0001000000      NO
          MAX gradient        0.0005211403            0.0003000000      NO
          RMS step            0.0010894351            0.0020000000      YES
          MAX step            0.0030460552            0.0040000000      YES
          ........................................................
          Max(Bonds)      0.0007      Max(Angles)    0.13
          Max(Dihed)        0.17      Max(Improp)    0.00
          ---------------------------------------------------------------------

The optimization has not yet converged - more geometry cycles are needed


    ---------------------------------------------------------------------------
                         Redundant Internal Coordinates
                            (Angstroem and degrees)

        Definition                    Value    dE/dq     Step     New-Value
    ----------------------------------------------------------------------------
     1. B(C   1,C   0)                1.5362  0.000087 -0.0002    1.5361   
     2. B(C   2,C   1)                1.5313  0.000136 -0.0002    1.5311   
     3. B(N   3,C   2)                1.4746  0.000521 -0.0007    1.4739   
     4. B(C   4,N   3)                1.4746  0.000503 -0.0006    1.4740   
     5. B(C   5,C   4)                1.5311  0.000134 -0.0002    1.5309   
     6. B(C   5,C   0)                1.5362  0.000079 -0.0001    1.5360   
     7. B(H   6,C   0)                1.1013 -0.000045  0.0001    1.1013   
     8. B(H   7,C   0)                1.1045 -0.000045  0.0001    1.1046   
     9. B(H   8,C   1)                1.1013 -0.000044  0.0001    1.1014   
    10. B(H   9,C   1)                1.1035 -0.000059  0.0001    1.1036   
    11. B(H  10,C   2)                1.1128 -0.000073  0.0001    1.1129   
    12. B(H  11,C   2)                1.1006 -0.000038  0.0001    1.1007   
    13. B(H  12,N   3)                1.0230 -0.000016  0.0000    1.0230   
    14. B(H  13,C   4)                1.1129 -0.000073  0.0001    1.1130   
    15. B(H  14,C   4)                1.1006 -0.000034  0.0001    1.1006   
    16. B(H  15,C   5)                1.1014 -0.000039  0.0001    1.1014   
    17. B(H  16,C   5)                1.1034 -0.000060  0.0001    1.1035   
    18. A(C   1,C   0,H   6)          110.57 -0.000011   -0.00    110.57   
    19. A(C   1,C   0,C   5)          110.91  0.000110   -0.01    110.90   
    20. A(C   5,C   0,H   7)          108.98 -0.000046    0.00    108.98   
    21. A(C   5,C   0,H   6)          110.58 -0.000015   -0.00    110.58   
    22. A(H   6,C   0,H   7)          106.75  0.000002    0.01    106.76   
    23. A(C   1,C   0,H   7)          108.94 -0.000046    0.00    108.94   
    24. A(C   0,C   1,H   9)          109.70  0.000033   -0.01    109.69   
    25. A(C   2,C   1,H   8)          109.61  0.000017    0.01    109.62   
    26. A(C   0,C   1,H   8)          110.60 -0.000049    0.01    110.61   
    27. A(C   2,C   1,H   9)          108.93  0.000065   -0.01    108.92   
    28. A(H   8,C   1,H   9)          107.21 -0.000047    0.01    107.21   
    29. A(C   0,C   1,C   2)          110.72 -0.000017    0.00    110.72   
    30. A(H  10,C   2,H  11)          107.37  0.000049   -0.00    107.37   
    31. A(N   3,C   2,H  11)          108.46 -0.000038    0.01    108.47   
    32. A(N   3,C   2,H  10)          111.62  0.000098   -0.03    111.60   
    33. A(C   1,C   2,H  10)          108.75 -0.000055    0.01    108.75   
    34. A(C   1,C   2,N   3)          109.96  0.000011   -0.00    109.95   
    35. A(C   1,C   2,H  11)          110.66 -0.000066    0.01    110.68   
    36. A(C   2,N   3,C   4)          111.02 -0.000319    0.13    111.16   
    37. A(C   4,N   3,H  12)          108.75 -0.000079    0.11    108.86   
    38. A(C   2,N   3,H  12)          108.74 -0.000076    0.11    108.85   
    39. A(H  13,C   4,H  14)          107.36  0.000046   -0.00    107.36   
    40. A(N   3,C   4,H  14)          108.46 -0.000049    0.01    108.47   
    41. A(C   5,C   4,H  13)          108.72 -0.000054    0.00    108.73   
    42. A(N   3,C   4,H  13)          111.65  0.000118   -0.03    111.62   
    43. A(C   5,C   4,H  14)          110.68 -0.000075    0.02    110.70   
    44. A(N   3,C   4,C   5)          109.95  0.000014   -0.00    109.94   
    45. A(C   0,C   5,H  16)          109.69  0.000027   -0.01    109.68   
    46. A(C   4,C   5,H  15)          109.60  0.000008    0.01    109.61   
    47. A(C   0,C   5,H  15)          110.61 -0.000036    0.01    110.62   
    48. A(C   0,C   5,C   4)          110.70 -0.000020    0.00    110.70   
    49. A(H  15,C   5,H  16)          107.23 -0.000043    0.00    107.23   
    50. A(C   4,C   5,H  16)          108.94  0.000066   -0.02    108.93   
    51. D(H   8,C   1,C   0,H   6)     62.91  0.000011   -0.08     62.83   
    52. D(H   8,C   1,C   0,C   5)   -174.05  0.000061   -0.09   -174.14   
    53. D(C   2,C   1,C   0,H   6)   -175.40 -0.000013   -0.06   -175.45   
    54. D(C   2,C   1,C   0,C   5)    -52.35  0.000037   -0.07    -52.42   
    55. D(H   8,C   1,C   0,H   7)    -54.11  0.000042   -0.09    -54.20   
    56. D(C   2,C   1,C   0,H   7)     67.59  0.000018   -0.07     67.52   
    57. D(N   3,C   2,C   1,C   0)     56.72  0.000121   -0.06     56.66   
    58. D(H  10,C   2,C   1,H   9)    173.52 -0.000044   -0.01    173.51   
    59. D(H  10,C   2,C   1,C   0)    -65.77  0.000028   -0.03    -65.80   
    60. D(N   3,C   2,C   1,H   9)    -63.99  0.000049   -0.04    -64.03   
    61. D(H  10,C   2,C   1,H   8)     56.50 -0.000034   -0.01     56.50   
    62. D(N   3,C   2,C   1,H   8)    179.00  0.000059   -0.04    178.96   
    63. D(C   4,N   3,C   2,H  11)    176.74 -0.000053    0.10    176.84   
    64. D(C   4,N   3,C   2,C   1)    -62.12 -0.000151    0.12    -62.00   
    65. D(C   4,N   3,C   2,H  10)     58.65 -0.000148    0.11     58.76   
    66. D(H  12,N   3,C   2,H  10)    -60.95  0.000192   -0.17    -61.13   
    67. D(H  12,N   3,C   2,C   1)    178.27  0.000189   -0.16    178.11   
    68. D(H  14,C   4,N   3,C   2)   -176.68  0.000043   -0.10   -176.78   
    69. D(H  13,C   4,N   3,H  12)     61.01 -0.000200    0.17     61.19   
    70. D(H  13,C   4,N   3,C   2)    -58.59  0.000138   -0.11    -58.70   
    71. D(C   5,C   4,N   3,H  12)   -178.23 -0.000181    0.16   -178.07   
    72. D(C   5,C   4,N   3,C   2)     62.17  0.000158   -0.13     62.04   
    73. D(C   0,C   5,C   4,H  13)     65.71 -0.000013    0.03     65.74   
    74. D(C   0,C   5,C   4,N   3)    -56.80 -0.000133    0.07    -56.73   
    75. D(H  15,C   5,C   0,H   7)     54.15 -0.000045    0.09     54.24   
    76. D(H  15,C   5,C   0,H   6)    -62.89 -0.000011    0.08    -62.82   
    77. D(H  15,C   5,C   0,C   1)    174.07 -0.000063    0.09    174.16   
    78. D(C   4,C   5,C   0,H   7)    -67.53 -0.000016    0.07    -67.46   
    79. D(C   4,C   5,C   0,H   6)    175.43  0.000017    0.05    175.48   
    80. D(C   0,C   5,C   4,H  14)   -176.60 -0.000034    0.04   -176.56   
    81. D(C   4,C   5,C   0,C   1)     52.39 -0.000035    0.07     52.46   
    82. D(H  15,C   5,C   4,H  14)     61.13  0.000020    0.02     61.15   
    83. D(H  15,C   5,C   4,H  13)    -56.56  0.000041    0.01    -56.55   
    84. D(H  15,C   5,C   4,N   3)   -179.07 -0.000079    0.05   -179.02   
    ----------------------------------------------------------------------------

Geometry step timings:
Preparation and reading OPT file:      0.000 s ( 6.595 %)
Internal coordinates            :      0.000 s ( 1.863 %)
B/P matrices and projection     :      0.001 s (16.763 %)
Hessian update/contruction      :      0.001 s (23.257 %)
Making the step                 :      0.001 s (14.120 %)
Converting the step to Cartesian:      0.000 s ( 2.492 %)
Storing new data                :      0.000 s ( 1.359 %)
Checking convergence            :      0.000 s ( 0.126 %)
Final printing                  :      0.001 s (33.199 %)
Total time                      :      0.004 s

Time for energy+gradient        :     11.441 s
Time for complete geometry iter :     12.567 s

         *************************************************************
         *                GEOMETRY OPTIMIZATION CYCLE   2            *
         *************************************************************
---------------------------------
CARTESIAN COORDINATES (ANGSTROEM)
---------------------------------
  C      0.629540    1.234520   -0.105599
  C     -0.901625    1.127725   -0.045069
  C     -1.366846   -0.255667   -0.507854
  N     -0.725638   -1.301351    0.309353
  C      0.740050   -1.272441    0.155806
  C      1.290162    0.069394    0.646351
  H      0.966577    2.199940    0.303473
  H      0.949384    1.207387   -1.162549
  H     -1.369436    1.903747   -0.671206
  H     -1.245195    1.292751    0.990583
  H     -1.123027   -0.372493   -1.587454
  H     -2.458355   -0.353158   -0.405103
  H     -1.071759   -2.215473    0.007433
  H      1.044246   -1.417012   -0.904988
  H      1.167957   -2.103908    0.736314
  H      2.383240    0.091796    0.512949
  H      1.090726    0.164243    1.727560

----------------------------
CARTESIAN COORDINATES (A.U.)
----------------------------
  NO LB      ZA    FRAG     MASS         X           Y           Z
   0 C     6.0000    0    12.011    1.189657    2.332904   -0.199553
   1 C     6.0000    0    12.011   -1.703825    2.131092   -0.085168
   2 C     6.0000    0    12.011   -2.582964   -0.483141   -0.959705
   3 N     7.0000    0    14.007   -1.371257   -2.459197    0.584593
   4 C     6.0000    0    12.011    1.398492   -2.404565    0.294431
   5 C     6.0000    0    12.011    2.438053    0.131135    1.221427
   6 H     1.0000    0     1.008    1.826566    4.157284    0.573481
   7 H     1.0000    0     1.008    1.794076    2.281631   -2.196900
   8 H     1.0000    0     1.008   -2.587860    3.597560   -1.268395
   9 H     1.0000    0     1.008   -2.353078    2.442946    1.871930
  10 H     1.0000    0     1.008   -2.122214   -0.703909   -2.999854
  11 H     1.0000    0     1.008   -4.645618   -0.667372   -0.765534
  12 H     1.0000    0     1.008   -2.025331   -4.186637    0.014046
  13 H     1.0000    0     1.008    1.973339   -2.677764   -1.710179
  14 H     1.0000    0     1.008    2.207118   -3.975810    1.391431
  15 H     1.0000    0     1.008    4.503671    0.173470    0.969333
  16 H     1.0000    0     1.008    2.061174    0.310374    3.264616

--------------------------------
INTERNAL COORDINATES (ANGSTROEM)
--------------------------------
 C      0   0   0     0.000000000000     0.00000000     0.00000000
 C      1   0   0     1.536077743268     0.00000000     0.00000000
 C      2   1   0     1.531135199312   110.71831145     0.00000000
 N      3   2   1     1.473916176280   109.95238278    56.66108003
 C      4   3   2     1.473992259859   111.15633851   297.99798295
 C      5   4   3     1.530940529817   109.94495652    62.04490091
 H      1   2   3     1.101349242207   110.56995036   184.54557671
 H      1   2   3     1.104617912851   108.94278373    67.52002429
 H      2   1   3     1.101410211900   110.60929556   238.28477819
 H      2   1   3     1.103561401749   109.68913478   120.22829300
 H      3   2   1     1.112938766513   108.75201949   294.19786216
 H      3   2   1     1.100661094692   110.67860879   176.48147477
 H      4   3   2     1.023022292933   108.85167047   178.10740487
 H      5   4   3     1.112977924394   111.62415383   301.29920518
 H      5   4   3     1.100649787691   108.47119307   183.21705000
 H      6   5   4     1.101416074547   109.61071761   180.97706110
 H      6   5   4     1.103532591732   108.92516631    63.93419410

---------------------------
INTERNAL COORDINATES (A.U.)
---------------------------
 C      0   0   0     0.000000000000     0.00000000     0.00000000
 C      1   0   0     2.902766255188     0.00000000     0.00000000
 C      2   1   0     2.893426200707   110.71831145     0.00000000
 N      3   2   1     2.785297917526   109.95238278    56.66108003
 C      4   3   2     2.785441694654   111.15633851   297.99798295
 C      5   4   3     2.893058328675   109.94495652    62.04490091
[...]
      dx2y2   :     0.016162
      dxy     :     0.014378
      f0      :     0.000507  f :     0.002958
      f+1     :     0.000458
      f-1     :     0.000347
      f+2     :     0.000445
      f-2     :     0.000254
      f+3     :     0.000391
      f-3     :     0.000556

  4 C s       :     3.351769  s :     3.351769
      pz      :     1.123456  p :     2.992392
      px      :     0.808471
      py      :     1.060465
      dz2     :     0.048303  d :     0.127225
      dxz     :     0.006193
      dyz     :     0.011845
      dx2y2   :     0.028969
      dxy     :     0.031915
      f0      :     0.001168  f :     0.007756
      f+1     :     0.000710
      f-1     :     0.000647
      f+2     :     0.001627
      f-2     :     0.000185
      f+3     :     0.001567
      f-3     :     0.001851

  5 C s       :     3.277575  s :     3.277575
      pz      :     1.122148  p :     3.174523
      px      :     1.121709
      py      :     0.930665
      dz2     :     0.016688  d :     0.027330
      dxz     :    -0.020778
      dyz     :    -0.016787
      dx2y2   :     0.038271
      dxy     :     0.009935
      f0      :     0.000714  f :     0.005380
      f+1     :     0.000345
      f-1     :     0.001125
      f+2     :     0.000617
      f-2     :     0.000491
      f+3     :     0.001010
      f-3     :     0.001079

  6 H s       :     0.716779  s :     0.716779
      pz      :     0.009132  p :     0.060894
      px      :     0.018548
      py      :     0.033214

  7 H s       :     0.660363  s :     0.660363
      pz      :     0.036665  p :     0.030263
      px      :     0.006399
      py      :    -0.012802

  8 H s       :     0.697103  s :     0.697103
      pz      :     0.013550  p :     0.059363
      px      :     0.019787
      py      :     0.026026

  9 H s       :     0.680088  s :     0.680088
      pz      :     0.029991  p :     0.043602
      px      :     0.006960
      py      :     0.006651

 10 H s       :     0.637993  s :     0.637993
      pz      :     0.041351  p :     0.044963
      px      :    -0.007423
      py      :     0.011035

 11 H s       :     0.658675  s :     0.658675
      pz      :     0.013842  p :     0.059030
      px      :     0.026418
      py      :     0.018770

 12 H s       :     0.720999  s :     0.720999
      pz      :     0.015597  p :     0.044869
      px      :     0.010126
      py      :     0.019146

 13 H s       :     0.638945  s :     0.638945
      pz      :     0.033003  p :     0.044972
      px      :     0.015588
      py      :    -0.003618

 14 H s       :     0.659296  s :     0.659296
      pz      :     0.014272  p :     0.059055
      px      :     0.019045
      py      :     0.025738

 15 H s       :     0.697016  s :     0.697016
      pz      :     0.006473  p :     0.059393
      px      :     0.037014
      py      :     0.015906

 16 H s       :     0.680513  s :     0.680513
      pz      :     0.035678  p :     0.043612
      px      :    -0.002102
      py      :     0.010036



                     *******************************
                     * LOEWDIN POPULATION ANALYSIS *
                     *******************************

----------------------
LOEWDIN ATOMIC CHARGES
----------------------
   0 C :   -0.219602
   1 C :   -0.211153
   2 C :   -0.253704
   3 N :   -0.088709
   4 C :   -0.253696
   5 C :   -0.211230
   6 H :    0.107714
   7 H :    0.113056
   8 H :    0.110063
   9 H :    0.111389
  10 H :    0.117373
  11 H :    0.113928
  12 H :    0.111749
  13 H :    0.117384
  14 H :    0.113942
  15 H :    0.110084
  16 H :    0.111412

-------------------------------
LOEWDIN REDUCED ORBITAL CHARGES
-------------------------------
  0 C s       :     2.688992  s :     2.688992
      pz      :     0.924630  p :     2.757378
      px      :     0.916782
      py      :     0.915967
      dz2     :     0.151074  d :     0.734547
      dxz     :     0.147018
      dyz     :     0.087709
      dx2y2   :     0.180502
      dxy     :     0.168245
      f0      :     0.005098  f :     0.038685
      f+1     :     0.004597
      f-1     :     0.003493
      f+2     :     0.007148
      f-2     :     0.004250
      f+3     :     0.006119
      f-3     :     0.007980

  1 C s       :     2.691415  s :     2.691415
      pz      :     0.925901  p :     2.755917
      px      :     0.919378
      py      :     0.910638
      dz2     :     0.114156  d :     0.725085
      dxz     :     0.137930
      dyz     :     0.122240
      dx2y2   :     0.155683
      dxy     :     0.195077
      f0      :     0.004980  f :     0.038735
      f+1     :     0.003894
      f-1     :     0.003489
      f+2     :     0.006365
      f-2     :     0.004417
      f+3     :     0.007111
      f-3     :     0.008479

  2 C s       :     2.689738  s :     2.689738
      pz      :     0.897930  p :     2.686365
      px      :     0.908444
      py      :     0.879990
      dz2     :     0.234312  d :     0.824345
      dxz     :     0.056183
      dyz     :     0.180083
      dx2y2   :     0.218498
      dxy     :     0.135269
      f0      :     0.004835  f :     0.053255
      f+1     :     0.005558
      f-1     :     0.010111
      f+2     :     0.007492
      f-2     :     0.009473
      f+3     :     0.008835
      f-3     :     0.006952

  3 N s       :     2.940625  s :     2.940625
      pz      :     1.345941  p :     3.489796
      px      :     1.081868
      py      :     1.061987
      dz2     :     0.108445  d :     0.643381
      dxz     :     0.131065
      dyz     :     0.072690
      dx2y2   :     0.166928
      dxy     :     0.164253
      f0      :     0.001358  f :     0.014908
      f+1     :     0.001632
      f-1     :     0.001465
      f+2     :     0.003249
      f-2     :     0.002009
      f+3     :     0.002249
      f-3     :     0.002947

  4 C s       :     2.689721  s :     2.689721
      pz      :     0.927103  p :     2.686325
      px      :     0.830121
      py      :     0.929102
      dz2     :     0.135953  d :     0.824397
      dxz     :     0.190313
      dyz     :     0.118409
      dx2y2   :     0.185587
      dxy     :     0.194135
      f0      :     0.007434  f :     0.053254
      f+1     :     0.005597
      f-1     :     0.003543
      f+2     :     0.010670
      f-2     :     0.004895
      f+3     :     0.010063
      f-3     :     0.011051

  5 C s       :     2.691394  s :     2.691394
      pz      :     0.925248  p :     2.755941
      px      :     0.914411
      py      :     0.916282
      dz2     :     0.189921  d :     0.725142
      dxz     :     0.047191
      dyz     :     0.150697
      dx2y2   :     0.221033
      dxy     :     0.116300
      f0      :     0.004374  f :     0.038752
      f+1     :     0.003478
      f-1     :     0.006206
      f+2     :     0.005396
      f-2     :     0.006539
      f+3     :     0.006936
      f-3     :     0.005823

  6 H s       :     0.690612  s :     0.690612
      pz      :     0.060494  p :     0.201674
      px      :     0.053897
      py      :     0.087284

  7 H s       :     0.679893  s :     0.679893
      pz      :     0.096947  p :     0.207051
      px      :     0.053668
      py      :     0.056436

  8 H s       :     0.688567  s :     0.688567
      pz      :     0.070156  p :     0.201370
      px      :     0.058147
      py      :     0.073067

  9 H s       :     0.683605  s :     0.683605
      pz      :     0.097595  p :     0.205005
      px      :     0.054081
      py      :     0.053329

 10 H s       :     0.681352  s :     0.681352
      pz      :     0.094969  p :     0.201275
      px      :     0.060676
      py      :     0.045630

 11 H s       :     0.691065  s :     0.691065
      pz      :     0.051645  p :     0.195007
      px      :     0.096815
      py      :     0.046546

 12 H s       :     0.625326  s :     0.625326
      pz      :     0.088386  p :     0.262925
      px      :     0.068172
      py      :     0.106367

 13 H s       :     0.681324  s :     0.681324
      pz      :     0.101794  p :     0.201292
      px      :     0.046524
      py      :     0.052973

 14 H s       :     0.691063  s :     0.691063
      pz      :     0.067763  p :     0.194994
      px      :     0.049922
      py      :     0.077310

 15 H s       :     0.688565  s :     0.688565
      pz      :     0.054318  p :     0.201351
      px      :     0.098203
      py      :     0.048830

 16 H s       :     0.683581  s :     0.683581
      pz      :     0.094847  p :     0.205007
      px      :     0.060138
      py      :     0.050022



                      *****************************
                      * MAYER POPULATION ANALYSIS *
                      *****************************

  NA   - Mulliken gross atomic population
  ZA   - Total nuclear charge
  QA   - Mulliken gross atomic charge
  VA   - Mayer's total valence
  BVA  - Mayer's bonded valence
  FA   - Mayer's free valence

  ATOM       NA         ZA         QA         VA         BVA        FA
  0 C      6.5607     6.0000    -0.5607     4.1504     4.1504    -0.0000
  1 C      6.4822     6.0000    -0.4822     4.0128     4.0128    -0.0000
  2 C      6.4839     6.0000    -0.4839     3.8557     3.8557    -0.0000
  3 N      7.5115     7.0000    -0.5115     2.6970     2.6970    -0.0000
  4 C      6.4791     6.0000    -0.4791     3.8549     3.8549     0.0000
  5 C      6.4848     6.0000    -0.4848     4.0156     4.0156     0.0000
  6 H      0.7777     1.0000     0.2223     1.0252     1.0252    -0.0000
  7 H      0.6906     1.0000     0.3094     0.8919     0.8919    -0.0000
  8 H      0.7565     1.0000     0.2435     1.0065     1.0065    -0.0000
  9 H      0.7237     1.0000     0.2763     0.9383     0.9383    -0.0000
 10 H      0.6830     1.0000     0.3170     0.9464     0.9464    -0.0000
 11 H      0.7177     1.0000     0.2823     0.9060     0.9060    -0.0000
 12 H      0.7659     1.0000     0.2341     0.8903     0.8903     0.0000
 13 H      0.6839     1.0000     0.3161     0.9473     0.9473     0.0000
 14 H      0.7184     1.0000     0.2816     0.9064     0.9064     0.0000
 15 H      0.7564     1.0000     0.2436     1.0065     1.0065     0.0000
 16 H      0.7241     1.0000     0.2759     0.9385     0.9385     0.0000

  Mayer bond orders larger than 0.100000
B(  0-C ,  1-C ) :   0.9764 B(  0-C ,  5-C ) :   0.9764 B(  0-C ,  6-H ) :   0.9787 
B(  0-C ,  7-H ) :   0.9044 B(  1-C ,  2-C ) :   1.0102 B(  1-C ,  8-H ) :   0.9748 
B(  1-C ,  9-H ) :   0.9131 B(  2-C ,  3-N ) :   0.7991 B(  2-C ,  4-C ) :   0.1198 
B(  2-C , 10-H ) :   0.8942 B(  2-C , 11-H ) :   0.9309 B(  3-N ,  4-C ) :   0.7979 
B(  3-N , 12-H ) :   0.8353 B(  4-C ,  5-C ) :   1.0108 B(  4-C , 13-H ) :   0.8946 
B(  4-C , 14-H ) :   0.9311 B(  5-C , 15-H ) :   0.9746 B(  5-C , 16-H ) :   0.9135 


-------
TIMINGS
-------

Total SCF time: 0 days 0 hours 0 min 4 sec 

Total time                  ....       4.880 sec
Sum of individual times     ....       4.814 sec  ( 98.7%)

SCF preparation             ....       0.875 sec  ( 17.9%)
Fock matrix formation       ....       3.495 sec  ( 71.6%)
  Startup                   ....       0.030 sec  (  0.9% of F)
  Split-RI-J                ....       0.562 sec  ( 16.1% of F)
  XC integration            ....       2.379 sec  ( 68.1% of F)
    XC Preparation          ....       0.000 sec  (  0.0% of XC)
    Basis function eval.    ....       0.224 sec  (  9.4% of XC)
    Density eval.           ....       0.247 sec  ( 10.4% of XC)
    XC-Functional eval.     ....       0.026 sec  (  1.1% of XC)
    XC-Potential eval.      ....       0.447 sec  ( 18.8% of XC)
  CPCM terms                ....       0.423 sec  ( 12.1% of F)
Diagonalization             ....       0.000 sec  (  0.0%)
Density matrix formation    ....       0.050 sec  (  1.0%)
Total Energy calculation    ....       0.039 sec  (  0.8%)
Population analysis         ....       0.037 sec  (  0.8%)
Orbital Transformation      ....       0.054 sec  (  1.1%)
Orbital Orthonormalization  ....       0.000 sec  (  0.0%)
DIIS solution               ....       0.141 sec  (  2.9%)
SOSCF solution              ....       0.123 sec  (  2.5%)
Finished LeanSCF after   4.9 sec

Maximum memory used throughout the entire LEANSCF-calculation: 26.7 MB

-------------------------   --------------------
FINAL SINGLE POINT ENERGY      -251.998769637437
-------------------------   --------------------



           ************************************************************
           *        Program running with 16 parallel MPI-processes    *
           *              working on a common directory               *
           ************************************************************

------------------------------------------------------------------------------
                              ORCA PROPERTY CALCULATIONS
------------------------------------------------------------------------------

GBWName                                 ... single_point_tzvpd.gbw
Number of atoms                         ...     17
Number of basis functions               ...    321
Max core memory                         ...   2000 MB

Electric properties:
Dipole moment                           ... YES
Quadrupole moment                       ...  NO
Static polarizability (Dipole/Dipole)   ...  NO
Static polarizability (Dipole/Quad.)    ...  NO
Static polarizability (Quad./Quad.)     ...  NO
Static polarizability (Velocity)        ...  NO

Atomic electric properties:
Dipole moment                           ...  NO
Quadrupole moment                       ...  NO
Static polarizability                   ...  NO

Choice of electric origin               ... Center of mass
Position of electric origin             ...    -0.113317    -0.154623     0.123060

General magnetic properties:
Magnetizability                         ...  NO

EPR properties:
g-Tensor (aka g-matrix)                 ...  NO
Zero-Field splitting spin-orbit         ...  NO
Zero-field splitting spin-spin          ...  NO
Hyperfine couplings                     ...  NO (   0 nuclei)
Quadrupole couplings                    ...  NO (   0 nuclei)
Contact density                         ...  NO (   0 nuclei)

NMR properties:
Chemical shifts                         ...  NO (   0 nuclei)
Spin-rotation constants                 ...  NO (   0 nuclei)
Spin-spin couplings                     ...  NO (   0 nuclei,    0 pairs)

Choice of magnetic origin               ... GIAO
Position of magnetic origin             ...     0.000000     0.000000     0.000000

Properties with geometric perturbations:
SCF Hessian                             ...  NO
IR spectrum                             ...  NO
VCD spectrum                            ...  NO
X-ray spectroscopy properties:
SCF XES/XAS/RIXS spectra                ...  NO


-------------
DIPOLE MOMENT
-------------

Method             : SCF
Type of density    : Electron Density
Multiplicity       :   1
Irrep              :   0
Energy             :  -251.9987696374371353 Eh
Relativity type    : 
Basis              : AO
                                X                 Y                 Z
Electronic contribution:     -0.807839008      -1.327395122       0.533460988
Nuclear contribution   :      0.927262774       1.210375058      -1.091439568
                        -----------------------------------------
Total Dipole Moment    :      0.119423766      -0.117020064      -0.557978579
                        -----------------------------------------
Magnitude (a.u.)       :      0.582491052
Magnitude (Debye)      :      1.480574592



--------------------
Rotational spectrum 
--------------------
 
Rotational constants in cm-1:             0.150008             0.146686             0.084003 
Rotational constants in MHz :          4497.129954          4397.549113          2518.343816 

Dipole components along the rotational axes: 
x,y,z [a.u.] :    -0.070466    -0.000202    -0.578213 
x,y,z [Debye]:    -0.179109    -0.000514    -1.469701 

 

Dipole moment calculation done in   0.0 sec 

Maximum memory used throughout the entire PROP-calculation: 16.2 MB

--------------------------------
SUGGESTED CITATIONS FOR THIS RUN
--------------------------------

Below you find a list of papers that are relevant to this ORCA run
We neither can nor want to force you to cite these papers, but we appreciate if you do
You receive ORCA, which is the product of decades of hard work by many enthusiastic individuals, for free
The only thing we kindly ask in return is that you cite our papers,
We deeply appreciate it, if you show your appreciation for ORCA by not just citing the generic ORCA reference.

Please note that relegating all ORCA citations to the supporting information does *not* help us.
SI sections are not indexed - citations you put there will not count into any citation statistics
But we need these citations in order to attract the funding resources that allow us to do what we are doing

Therefore, if you are a happy ORCA user, please consider citing a few of the papers listed below in the main body of your paper

In addition to the list printed below, the program has created the file single_point_tzvpd.bibtex that contains the list in bibtex format
You can import this file easily into all common literature databanks and citation aid programs


List of essential papers. We consider these as the minimum necessary citations

  1. Neese,F.
     Software update: the ORCA program system, version 5.0
     WIRES Comput. Molec. Sci., 2022 12(1)e1606
     doi.org/10.1002/wcms.1606

List of papers to cite with high priority. The work reported in these papers was absolutely
necessary for this run to complete.
Our perspective: the developers of density functionals and basis sets usually get cited in chemistry papers
Good! But without the algorithms to do something with them, the functionals or basis sets would not do anything.
Hence, in our opinion, the algorithm design and method developments papers are equally worthy of getting cited

  1. Neese,F.
     An improvement of the resolution of the identity approximation for the formation of the Coulomb matrix
     J. Comp. Chem., 2003 24(14)1740-1747
     doi.org/10.1002/jcc.10318
  2. Garcia-Rates,M.; Neese,F.
     Effect of the Solute Cavity on the Solvation Energy and its Derivatives within the Framework of the Gaussian Charge Scheme
     J. Comput. Chem., 2020 41 922-939
     doi.org/10.1002/jcc.26139
  3. Neese,F.
     The SHARK Integral Generation and Digestion System
     J. Comp. Chem., 2022  1-16
     doi.org/10.1002/jcc.26942

List of suggested additional citations. These are papers that are important in the 'surrounding' of 
of this run, or papers that preceded the highly important papers. If you like your results we are grateful for a citation.

  1. Neese,F.
     The ORCA program system
     WIRES Comput. Molec. Sci., 2012 2(1)73-78
     doi.org/10.1002/wcms.81
  2. Neese,F.
     Software update: the ORCA program system, version 4.0
     WIRES Comput. Molec. Sci., 2018 8(1)1-6
     doi.org/10.1002/wcms.1327
  3. Neese,F.; Wennmohs,F.; Becker,U.; Riplinger,C.
     The ORCA quantum chemistry program package
     J. Chem. Phys., 2020 152 Art. No. L224108
     doi.org/10.1063/5.0004608

List of optional additional citations

  1. Neese,F.
     Approximate second-order SCF convergence for spin unrestricted wavefunctions
     Chem. Phys. Lett., 2000 325(1-3)93-98
     doi.org/10.1016/s0009-2614(00)00662-x

Timings for individual modules:

Sum of individual times          ...        9.524 sec (=   0.159 min)
Startup calculation              ...        1.645 sec (=   0.027 min)  17.3 %
SCF iterations                   ...        6.658 sec (=   0.111 min)  69.9 %
Property calculations            ...        1.221 sec (=   0.020 min)  12.8 %



                             ****ORCA TERMINATED NORMALLY****
TOTAL RUN TIME: 0 days 0 hours 0 minutes 50 seconds 585 msec
