
                                 *****************
                                 * O   R   C   A *
                                 *****************

                                            #,                                       
                                            ###                                      
                                            ####                                     
                                            #####                                    
                                            ######                                   
                                           ########,                                 
                                     ,,################,,,,,                         
                               ,,#################################,,                 
                          ,,##########################################,,             
                       ,#########################################, ''#####,          
                    ,#############################################,,   '####,        
                  ,##################################################,,,,####,       
                ,###########''''           ''''###############################       
              ,#####''   ,,,,##########,,,,          '''####'''          '####       
            ,##' ,,,,###########################,,,                        '##       
           ' ,,###''''                  '''############,,,                           
         ,,##''                                '''############,,,,        ,,,,,,###''
      ,#''                                            '''#######################'''  
     '                                                          ''''####''''         
             ,#######,   #######,   ,#######,      ##                                
            ,#'     '#,  ##    ##  ,#'     '#,    #''#        ,####,   ,####,        
            ##       ##  ##   ,#'  ##            #'  '#       #'       #'  '#        
            ##       ##  #######   ##           ,######,      #####,   #    #        
            '#,     ,#'  ##    ##  '#,     ,#' ,#      #,     #,   #   #,  ,#        
             '#######'   ##     ##  '#######'  #'      '#     '####' # '####'        



                #########################################################
                #                        -***-                          #
                #          Department of theory and spectroscopy        #
                #                                                       #
                #                      Frank Neese                      #
                #                                                       #
                #     Directorship, Architecture, Infrastructure        #
                #                    SHARK, DRIVERS                     #
                #        Core code/Algorithms in most modules           #
                #                                                       #
                #        Max Planck Institute fuer Kohlenforschung      #
                #                Kaiser Wilhelm Platz 1                 #
                #                 D-45470 Muelheim/Ruhr                 #
                #                      Germany                          #
                #                                                       #
                #                  All rights reserved                  #
                #                        -***-                          #
                #########################################################


                         Program Version 6.0.0  -   RELEASE  -


 With contributions from (in alphabetic order):
   Daniel Aravena         : Magnetic Suceptibility
   Michael Atanasov       : Ab Initio Ligand Field Theory (pilot matlab implementation)
   Alexander A. Auer      : GIAO ZORA, VPT2 properties, NMR spectrum
   Ute Becker             : All parallelization in ORCA, NUMFREQ, NUMCALC
   Giovanni Bistoni       : ED, misc. LED, open-shell LED, HFLD
   Martin Brehm           : Molecular dynamics
   Dmytro Bykov           : pre 5.0 version of the SCF Hessian
   Marcos Casanova-Páez   : Triplet and SCS-CIS(D). UHF-(DLPNO)-IP/EA/STEOM-CCSD. UHF-CVS-IP/STEOM-CCSD
   Vijay G. Chilkuri      : MRCI spin determinant printing, contributions to CSF-ICE
   Pauline Colinet        : FMM embedding
   Dipayan Datta          : RHF DLPNO-CCSD density
   Achintya Kumar Dutta   : EOM-CC, STEOM-CC
   Nicolas Foglia         : Exact transition moments, OPA infrastructure, MCD improvements
   Dmitry Ganyushin       : Spin-Orbit,Spin-Spin,Magnetic field MRCI
   Miquel Garcia          : C-PCM and meta-GGA Hessian, CCSD/C-PCM, Gaussian charge scheme
   Tiago L. C. Gouveia    : GS-ROHF, GS-ROCIS
   Yang Guo               : DLPNO-NEVPT2, F12-NEVPT2, CIM, IAO-localization
   Andreas Hansen         : Spin unrestricted coupled pair/coupled cluster methods
   Ingolf Harden          : AUTO-CI MPn and infrastructure 
   Benjamin Helmich-Paris : MC-RPA, TRAH-(SCF,CASSCF), AVAS, COSX integrals, SCF dyn. polar.
   Lee Huntington         : MR-EOM, pCC
   Robert Izsak           : Overlap fitted RIJCOSX, COSX-SCS-MP3, EOM
   Riya Kayal             : Wick's Theorem for AUTO-CI, AUTO-CI UHF-CCSDT
   Emily Kempfer          : AUTO-CI, RHF CISDT and CCSDT
   Christian Kollmar      : KDIIS, OOCD, Brueckner-CCSD(T), CCSD density, CASPT2, CASPT2-K, improved NEVPT2
   Axel Koslowski         : Symmetry handling
   Simone Kossmann        : Meta GGA functionals, TD-DFT gradient, OOMP2, (MP2 Hessian; deprecated post 5.0)
   Lucas Lang             : DCDCAS
   Marvin Lechner         : AUTO-CI (C++ implementation), FIC-MRCC
   Spencer Leger          : CASSCF response
   Dagmar Lenk            : GEPOL surface, SMD, ORCA-2-JSON
   Dimitrios Liakos       : Extrapolation schemes; Compound Job, initial MDCI parallelization
   Dimitrios Manganas     : Further ROCIS development; embedding schemes. LFT, Crystal Embedding
   Dimitrios Pantazis     : SARC Basis sets
   Anastasios Papadopoulos: AUTO-CI, single reference methods and gradients
   Taras Petrenko         : pre 6.0 DFT Hessian and TD-DFT gradient, (ASA, deprecated), ECA, 1-Electron XAS/XES, NRVS
   Peter Pinski           : DLPNO-MP2, DLPNO-MP2 Gradient
   Christoph Reimann      : Effective Core Potentials
   Marius Retegan         : Local ZFS, SOC
   Christoph Riplinger    : Optimizer, TS searches, QM/MM, DLPNO-CCSD(T), (RO)-DLPNO pert. Triples
   Michael Roemelt        : Original ROCIS implementation
   Masaaki Saitow         : Open-shell DLPNO-CCSD energy and density
   Barbara Sandhoefer     : DKH picture change effects
   Kantharuban Sivalingam : CASSCF convergence/infrastructure, NEVPT2 and variants, FIC-MRCI
   Bernardo de Souza      : ESD, SOC TD-DFT
   Georgi Stoychev        : AutoAux, RI-MP2 NMR, DLPNO-MP2 response, X2C
   Van Anh Tran           : RI-MP2 g-tensors
   Willem Van den Heuvel  : Paramagnetic NMR
   Zikuan Wang            : NOTCH, Electric field optimization 
   Frank Wennmohs         : Technical directorship and infrastructure
   Hang Xu                : AUTO-CI-Response properties 


 We gratefully acknowledge several colleagues who have allowed us to
 interface, adapt or use parts of their codes:
   Stefan Grimme, W. Hujo, H. Kruse, P. Pracht,  : VdW corrections, initial TS optimization,
                  C. Bannwarth, S. Ehlert,         DFT functionals, gCP, sTDA/sTD-DF
                  L. Wittmann, M. Mueller
   Ed Valeev, F. Pavosevic, A. Kumar             : LibInt (2-el integral package), F12 methods
   Garnet Chan, S. Sharma, J. Yang, R. Olivares  : DMRG
   Ulf Ekstrom                                   : XCFun DFT Library
   Mihaly Kallay                                 : mrcc  (arbitrary order and MRCC methods)
   Frank Weinhold                                : gennbo (NPA and NBO analysis)
   Simon Mueller                                 : openCOSMO-RS
   Christopher J. Cramer and Donald G. Truhlar   : smd solvation model
   Lars Goerigk                                  : TD-DFT with DH, B97 family of functionals
   V. Asgeirsson, H. Jonsson                     : NEB implementation
   FAccTs GmbH                                   : IRC, NEB, NEB-TS, DLPNO-Multilevel, CI-OPT
                                                   MM, QMMM, 2- and 3-layer-ONIOM, Crystal-QMMM,
                                                   LR-CPCM, SF, NACMEs, symmetry and pop. for TD-DFT,
                                                   nearIR, NL-DFT gradient (VV10), updates on ESD,
                                                   ML-optimized integration grids, MBIS, APM,
                                                   GOAT, DOCKER, SOLVATOR, interface openCOSMO-RS
   S Lehtola, MJT Oliveira, MAL Marques          : LibXC Library
   Liviu Ungur et al                             : ANISO software


 Your calculation uses the libint2 library for the computation of 2-el integrals
 For citations please refer to: http://libint.valeyev.net

 Your ORCA version has been built with support for libXC version: 6.2.2
 For citations please refer to: https://libxc.gitlab.io

 This ORCA versions uses:
   CBLAS   interface :  Fast vector & matrix operations
   LAPACKE interface :  Fast linear algebra routines
   SCALAPACK package :  Parallel linear algebra routines
   Shared memory     :  Shared parallel matrices
   BLAS/LAPACK       :  OpenBLAS 0.3.27  USE64BITINT DYNAMIC_ARCH NO_AFFINITY Zen SINGLE_THREADED
        Core in use  :  Zen
   Copyright (c) 2011-2014, The OpenBLAS Project


NOTE: MaxCore=2000 MB was set to SCF,MP2,MDCI,CIPSI,MRCI and CIS
      => If you want to overwrite this, your respective input block should be placed after the MaxCore statement


***************************************
The coordinates will be read from file: NDODE_c000.xyz
***************************************


Warning: RI is on but no J-basis has been assigned. Assigning Def2/J (nothing to worry about!)
================================================================================

----- Orbital basis set information -----
Your calculation utilizes the basis: def2-TZVPD
   F. Weigend and R. Ahlrichs, Phys. Chem. Chem. Phys. 7, 3297 (2005).
   D. Rappoport and F. Furche, J. Chem. Phys. 133, 134105 (2010)
   D. Rappoport, J. Chem. Phys. 155, 124102 (2021).

----- AuxJ basis set information -----
Your calculation utilizes the auxiliary basis: def2/J
   F. Weigend, Phys. Chem. Chem. Phys. 8, 1057 (2006).

================================================================================
                                        WARNINGS
                       Please study these warnings very carefully!
================================================================================


================================================================================
                                       INPUT FILE
================================================================================
NAME = input.dat
|  1> %MaxCore 2000
|  2> 
|  3> %base "single_point_tzvpd"
|  4> 
|  5> %cpcm
|  6> radius[1]  1.3
|  7> radius[2]  1.601
|  8> radius[5]  2.048
|  9> radius[6]  2.0
| 10> radius[7]  1.83
| 11> radius[8]  1.72
| 12> radius[9]  1.72
| 13> radius[10]  1.771
| 14> radius[13]  2.152
| 15> radius[14]  2.2
| 16> radius[15]  2.106
| 17> radius[16]  2.16
| 18> radius[17]  2.05
| 19> radius[18]  2.184
| 20> radius[22]  2.261
| 21> radius[26]  2.195
| 22> radius[27]  2.153
| 23> radius[31]  2.172
| 24> radius[32]  2.7
| 25> radius[33]  2.148
| 26> radius[34]  2.2
| 27> radius[35]  2.16
| 28> radius[36]  2.354
| 29> radius[49]  2.245
| 30> radius[50]  2.55
| 31> radius[51]  2.402
| 32> radius[53]  2.32
| 33> radius[54]  2.524
| 34> radius[80]  1.978
| 35> radius[82]  2.36
| 36> radius[86]  2.573
| 37> cut_area 0.03571064825863687
| 38> end
| 39> 
| 40> ! CPCM BP86 def2-TZVPD SP PAL64
| 41> 
| 42> %base "single_point_tzvpd"
| 43> 
| 44> * xyzfile 0 1 NDODE_c000.xyz
| 45> 
| 46>                          ****END OF INPUT****
================================================================================

                       ****************************
                       * Single Point Calculation *
                       ****************************

---------------------------------
CARTESIAN COORDINATES (ANGSTROEM)
---------------------------------
  C      0.989280    0.075710   -0.027400
  C      2.508000    0.068680   -0.037280
  C      3.045750   -0.798800   -1.172970
  C      4.572050   -0.807470   -1.186290
  C      5.099080   -1.678440   -2.324100
  C      6.624640   -1.691560   -2.341200
  C      7.148600   -2.560280   -3.481210
  C      8.674030   -2.571840   -3.497870
  C      9.202340   -3.441580   -4.635460
  C     10.728850   -3.449590   -4.649330
  C     11.265420   -4.316670   -5.784350
  C     12.784620   -4.323350   -5.796330
  H      0.618170    0.700270    0.790840
  H      0.594520   -0.936120    0.109200
  H      0.594320    0.474240   -0.967450
  H      2.875570   -0.307950    0.924430
  H      2.875390    1.095220   -0.146800
  H      2.672290   -0.422660   -2.133080
  H      2.673200   -1.825030   -1.061470
  H      4.949410   -1.184500   -0.228130
  H      4.947390    0.216680   -1.302180
  H      4.723400   -1.301070   -3.282870
  H      4.723660   -2.702720   -2.209810
  H      7.000180   -2.071130   -1.383260
  H      7.001460   -0.667940   -2.454460
  H      6.771790   -2.180890   -4.439450
  H      6.772870   -3.584490   -3.367340
  H      9.050500   -2.949270   -2.539090
  H      9.048880   -1.547250   -3.612540
  H      8.824790   -3.064480   -5.593780
  H      8.827740   -4.466110   -4.520980
  H     11.102150   -3.825030   -3.688800
  H     11.099480   -2.423440   -4.761080
  H     10.897020   -3.941810   -6.746340
  H     10.899260   -5.344070   -5.673900
  H     13.178470   -3.311360   -5.933930
  H     13.155070   -4.948230   -6.614120
  H     13.180710   -4.720970   -4.856110

----------------------------
CARTESIAN COORDINATES (A.U.)
----------------------------
  NO LB      ZA    FRAG     MASS         X           Y           Z
   0 C     6.0000    0    12.011    1.869468    0.143071   -0.051778
   1 C     6.0000    0    12.011    4.739433    0.129786   -0.070449
   2 C     6.0000    0    12.011    5.755633   -1.509513   -2.216592
   3 C     6.0000    0    12.011    8.639922   -1.525897   -2.241763
   4 C     6.0000    0    12.011    9.635865   -3.171792   -4.391913
   5 C     6.0000    0    12.011   12.518755   -3.196585   -4.424227
   6 C     6.0000    0    12.011   13.508896   -4.838228   -6.578534
   7 C     6.0000    0    12.011   16.391541   -4.860073   -6.610016
   8 C     6.0000    0    12.011   17.389902   -6.503644   -8.759750
   9 C     6.0000    0    12.011   20.274588   -6.518780   -8.785960
  10 C     6.0000    0    12.011   21.288559   -8.157324  -10.930837
  11 C     6.0000    0    12.011   24.159431   -8.169947  -10.953476
  12 H     1.0000    0     1.008    1.168172    1.323319    1.494471
  13 H     1.0000    0     1.008    1.123480   -1.769010    0.206358
  14 H     1.0000    0     1.008    1.123102    0.896184   -1.828216
  15 H     1.0000    0     1.008    5.434040   -0.581941    1.746920
  16 H     1.0000    0     1.008    5.433700    2.069666   -0.277412
  17 H     1.0000    0     1.008    5.049896   -0.798712   -4.030937
  18 H     1.0000    0     1.008    5.051616   -3.448807   -2.005888
  19 H     1.0000    0     1.008    9.353029   -2.238381   -0.431103
  20 H     1.0000    0     1.008    9.349212    0.409466   -2.460764
  21 H     1.0000    0     1.008    8.925932   -2.458666   -6.203725
  22 H     1.0000    0     1.008    8.926424   -5.107401   -4.175936
  23 H     1.0000    0     1.008   13.228423   -3.913868   -2.613983
  24 H     1.0000    0     1.008   13.230842   -1.262224   -4.638257
  25 H     1.0000    0     1.008   12.796829   -4.121285   -8.389345
  26 H     1.0000    0     1.008   12.798869   -6.773704   -6.363350
  27 H     1.0000    0     1.008   17.102966   -5.573313   -4.798185
  28 H     1.0000    0     1.008   17.099905   -2.923879   -6.826711
  29 H     1.0000    0     1.008   16.676436   -5.791028  -10.570712
  30 H     1.0000    0     1.008   16.682011   -8.439725   -8.543414
  31 H     1.0000    0     1.008   20.980023   -7.228259   -6.970822
  32 H     1.0000    0     1.008   20.974977   -4.579638   -8.997137
  33 H     1.0000    0     1.008   20.592383   -7.448941  -12.748735
  34 H     1.0000    0     1.008   20.596616  -10.098829  -10.722117
  35 H     1.0000    0     1.008   24.903699   -6.257564  -11.213503
  36 H     1.0000    0     1.008   24.859480   -9.350800  -12.498875
  37 H     1.0000    0     1.008   24.907932   -8.921340   -9.176718

--------------------------------
INTERNAL COORDINATES (ANGSTROEM)
--------------------------------
 C      0   0   0     0.000000000000     0.00000000     0.00000000
 C      1   0   0     1.518768406868     0.00000000     0.00000000
 C      2   1   0     1.526921212440   111.07785702     0.00000000
 C      3   2   1     1.526382744039   111.21556075   179.96846543
 C      4   3   2     1.526748492025   110.78870855   179.94070919
 C      5   4   3     1.525712246133   111.00328905   180.04962629
 C      6   5   4     1.526050890403   110.89014672   180.12553675
 C      7   6   5     1.525564772175   110.84156176   179.96085307
 C      8   7   6     1.526325696501   111.01168902   179.90827843
 C      9   8   7     1.526594024978   110.84703800   179.95486046
 C     10   9   8     1.525780289458   111.18560923   180.02171517
 C     11  10   9     1.519261920407   111.10139397   180.00330474
 H      1   2   3     1.094218681663   110.28261028   179.98021196
 H      1   2   3     1.094666600614   110.92484207    60.15328139
 H      1   2   3     1.094766443128   110.90739717   299.79559728
 H      2   1   3     1.096286452484   109.33915387   238.63113286
 H      2   1   3     1.095789402258   109.36455351   121.43093976
 H      3   2   1     1.096706379712   109.65533748    58.63403932
 H      3   2   1     1.097439640891   109.64168344   301.30975622
 H      4   3   2     1.096641589627   109.78032282    58.69415136
 H      4   3   2     1.096901923692   109.74179752   301.12776164
 H      5   4   3     1.096714863672   109.69238923    58.76356450
 H      5   4   3     1.096882810012   109.68902165   301.30961002
 H      6   5   4     1.096700834366   109.60776723    58.79822177
 H      6   5   4     1.096639888204   109.67654516   301.36923754
 H      7   6   5     1.097336067848   109.73233135    58.69545900
 H      7   6   5     1.096879908604   109.65671785   301.18627978
 H      8   7   6     1.097015111199   109.64607179    58.58012878
 H      8   7   6     1.097017046130   109.61714335   301.17623930
 H      9   8   7     1.096870837838   109.64090429    58.62353362
 H      9   8   7     1.096855756834   109.64865809   301.25297693
 H     10   9   8     1.096779815870   109.52271079    58.60953162
 H     10   9   8     1.096739933576   109.50783773   301.40953028
 H     11  10   9     1.096204059334   109.89506156    58.90203900
 H     11  10   9     1.096276930388   109.88758789   301.10145424
 H     12  11  10     1.094611959829   110.89886310   299.84738007
 H     12  11  10     1.093841259507   110.30773512   179.99484022
 H     12  11  10     1.094989772053   110.88788326    60.17239674

---------------------------
INTERNAL COORDINATES (A.U.)
---------------------------
 C      0   0   0     0.000000000000     0.00000000     0.00000000
 C      1   0   0     2.870056349832     0.00000000     0.00000000
 C      2   1   0     2.885462919587   111.07785702     0.00000000
 C      3   2   1     2.884445361777   111.21556075   179.96846543
 C      4   3   2     2.885136525304   110.78870855   179.94070919
 C      5   4   3     2.883178304361   111.00328905   180.04962629
 C      6   5   4     2.883818249288   110.89014672   180.12553675
 C      7   6   5     2.882899618968   110.84156176   179.96085307
 C      8   7   6     2.884337557554   111.01168902   179.90827843
 C      9   8   7     2.884844624890   110.84703800   179.95486046
 C     10   9   8     2.883306887612   111.18560923   180.02171517
 C     11  10   9     2.870988955265   111.10139397   180.00330474
 H      1   2   3     2.067773638963   110.28261028   179.98021196
 H      1   2   3     2.068620083111   110.92484207    60.15328139
 H      1   2   3     2.068808758120   110.90739717   299.79559728
 H      2   1   3     2.071681159523   109.33915387   238.63113286
 H      2   1   3     2.070741870720   109.36455351   121.43093976
 H      3   2   1     2.072474706979   109.65533748    58.63403932
 H      3   2   1     2.073860369794   109.64168344   301.30975622
 H      4   3   2     2.072352271463   109.78032282    58.69415136
 H      4   3   2     2.072844231550   109.74179752   301.12776164
 H      5   4   3     2.072490739342   109.69238923    58.76356450
 H      5   4   3     2.072808111929   109.68902165   301.30961002
 H      6   5   4     2.072464227795   109.60776723    58.79822177
 H      6   5   4     2.072349056240   109.67654516   301.36923754
 H      7   6   5     2.073664645107   109.73233135    58.69545900
 H      7   6   5     2.072802629063   109.65671785   301.18627978
 H      8   7   6     2.073058124940   109.64607179    58.58012878
 H      8   7   6     2.073061781429   109.61714335   301.17623930
 H      9   8   7     2.072785487799   109.64090429    58.62353362
 H      9   8   7     2.072756988831   109.64865809   301.25297693
 H     10   9   8     2.072613481207   109.52271079    58.60953162
 H     10   9   8     2.072538114593   109.50783773   301.40953028
 H     11  10   9     2.071525459034   109.89506156    58.90203900
 H     11  10   9     2.071663165368   109.88758789   301.10145424
 H     12  11  10     2.068516826991   110.89886310   299.84738007
 H     12  11  10     2.067060414452   110.30773512   179.99484022
 H     12  11  10     2.069230788624   110.88788326    60.17239674

---------------------
BASIS SET INFORMATION
---------------------
There are 2 groups of distinct atoms

 Group   1 Type C   : 12s6p3d1f contracted to 6s3p3d1f pattern {621111/411/111/1}
 Group   2 Type H   : 5s2p contracted to 3s2p pattern {311/11}

Atom   0C    basis set group =>   1
Atom   1C    basis set group =>   1
Atom   2C    basis set group =>   1
Atom   3C    basis set group =>   1
Atom   4C    basis set group =>   1
Atom   5C    basis set group =>   1
Atom   6C    basis set group =>   1
Atom   7C    basis set group =>   1
Atom   8C    basis set group =>   1
Atom   9C    basis set group =>   1
Atom  10C    basis set group =>   1
Atom  11C    basis set group =>   1
Atom  12H    basis set group =>   2
Atom  13H    basis set group =>   2
Atom  14H    basis set group =>   2
Atom  15H    basis set group =>   2
Atom  16H    basis set group =>   2
Atom  17H    basis set group =>   2
Atom  18H    basis set group =>   2
Atom  19H    basis set group =>   2
Atom  20H    basis set group =>   2
Atom  21H    basis set group =>   2
Atom  22H    basis set group =>   2
Atom  23H    basis set group =>   2
Atom  24H    basis set group =>   2
Atom  25H    basis set group =>   2
Atom  26H    basis set group =>   2
Atom  27H    basis set group =>   2
Atom  28H    basis set group =>   2
Atom  29H    basis set group =>   2
Atom  30H    basis set group =>   2
Atom  31H    basis set group =>   2
Atom  32H    basis set group =>   2
Atom  33H    basis set group =>   2
Atom  34H    basis set group =>   2
Atom  35H    basis set group =>   2
Atom  36H    basis set group =>   2
Atom  37H    basis set group =>   2
---------------------------------
AUXILIARY/J BASIS SET INFORMATION
---------------------------------
There are 2 groups of distinct atoms

 Group   1 Type C   : 12s5p4d2f1g contracted to 6s4p3d1f1g pattern {711111/2111/211/2/1}
 Group   2 Type H   : 5s2p1d contracted to 3s1p1d pattern {311/2/1}

Atom   0C    basis set group =>   1
Atom   1C    basis set group =>   1
Atom   2C    basis set group =>   1
Atom   3C    basis set group =>   1
Atom   4C    basis set group =>   1
Atom   5C    basis set group =>   1
Atom   6C    basis set group =>   1
Atom   7C    basis set group =>   1
Atom   8C    basis set group =>   1
Atom   9C    basis set group =>   1
Atom  10C    basis set group =>   1
Atom  11C    basis set group =>   1
Atom  12H    basis set group =>   2
Atom  13H    basis set group =>   2
Atom  14H    basis set group =>   2
Atom  15H    basis set group =>   2
Atom  16H    basis set group =>   2
Atom  17H    basis set group =>   2
Atom  18H    basis set group =>   2
Atom  19H    basis set group =>   2
Atom  20H    basis set group =>   2
Atom  21H    basis set group =>   2
Atom  22H    basis set group =>   2
Atom  23H    basis set group =>   2
Atom  24H    basis set group =>   2
Atom  25H    basis set group =>   2
Atom  26H    basis set group =>   2
Atom  27H    basis set group =>   2
Atom  28H    basis set group =>   2
Atom  29H    basis set group =>   2
Atom  30H    basis set group =>   2
Atom  31H    basis set group =>   2
Atom  32H    basis set group =>   2
Atom  33H    basis set group =>   2
Atom  34H    basis set group =>   2
Atom  35H    basis set group =>   2
Atom  36H    basis set group =>   2
Atom  37H    basis set group =>   2


           ************************************************************
           *        Program running with 64 parallel MPI-processes    *
           *              working on a common directory               *
           ************************************************************
------------------------------------------------------------------------------
                             ORCA STARTUP CALCULATIONS
                           -- RI-GTO INTEGRALS CHOSEN --
------------------------------------------------------------------------------
------------------------------------------------------------------------------
                   ___                                                        
                  /   \      - P O W E R E D   B Y -                         
                 /     \                                                     
                 |  |  |   _    _      __       _____    __    __             
                 |  |  |  | |  | |    /  \     |  _  \  |  |  /  |          
                  \  \/   | |  | |   /    \    | | | |  |  | /  /          
                 / \  \   | |__| |  /  /\  \   | |_| |  |  |/  /          
                |  |  |   |  __  | /  /__\  \  |    /   |      \           
                |  |  |   | |  | | |   __   |  |    \   |  |\   \          
                \     /   | |  | | |  |  |  |  | |\  \  |  | \   \       
                 \___/    |_|  |_| |__|  |__|  |_| \__\ |__|  \__/        
                                                                              
                      - O R C A' S   B I G   F R I E N D -                    
                                      &                                       
                       - I N T E G R A L  F E E D E R -                       
                                                                              
 v1 FN, 2020, v2 2021, v3 2022-2024                                           
------------------------------------------------------------------------------


----------------------
SHARK INTEGRAL PACKAGE
----------------------

Number of atoms                             ...     38
Number of basis functions                   ...    678
Number of shells                            ...    286
Maximum angular momentum                    ...      3
Integral batch strategy                     ... SHARK/LIBINT Hybrid
RI-J (if used) integral strategy            ... SPLIT-RIJ (Revised 2003 algorithm where possible)
Printlevel                                  ...      1
Contraction scheme used                     ... SEGMENTED contraction
Prescreening option                         ... SCHWARTZ
   Thresh                                   ... 1.000e-10
   Tcut                                     ... 1.000e-11
   Tpresel                                  ... 1.000e-11 
Coulomb Range Separation                    ... NOT USED
Exchange Range Separation                   ... NOT USED
Multipole approximations                    ... NOT USED
Finite Nucleus Model                        ... NOT USED
CABS basis                                  ... NOT available
Auxiliary Coulomb fitting basis             ... AVAILABLE
   # of basis functions in Aux-J            ...    874
   # of shells in Aux-J                     ...    310
   Maximum angular momentum in Aux-J        ...      4
Auxiliary J/K fitting basis                 ... NOT available
Auxiliary Correlation fitting basis         ... NOT available
Auxiliary 'external' fitting basis          ... NOT available

Checking pre-screening integrals            ... done (  0.0 sec) Dimension = 286
Check shell pair data                       ... done (  0.0 sec)
Shell pair information
Shell pair cut-off parameter TPreSel        ...   1.0e-11
Total number of shell pairs                 ...     41041
Shell pairs after pre-screening             ...     29642
Total number of primitive shell pairs       ...    100023
Primitive shell pairs kept                  ...     54513
          la=0 lb=0:   7885 shell pairs
          la=1 lb=0:   9583 shell pairs
          la=1 lb=1:   3008 shell pairs
          la=2 lb=0:   4004 shell pairs
          la=2 lb=1:   2450 shell pairs
          la=2 lb=2:    520 shell pairs
          la=3 lb=0:   1140 shell pairs
          la=3 lb=1:    712 shell pairs
          la=3 lb=2:    298 shell pairs
          la=3 lb=3:     42 shell pairs

Calculating one electron integrals          ... done (  0.0 sec)
Calculating RI/J V-Matrix + Cholesky decomp.... done (  0.0 sec)
Calculating Nuclear repulsion               ... done (  0.0 sec) ENN=    677.525259849197 Eh

Diagonalization of the overlap matrix:
Smallest eigenvalue                        ... 1.610e-06
Time for diagonalization                   ...    0.076 sec
Threshold for overlap eigenvalues          ... 1.000e-07
Number of eigenvalues below threshold      ... 0
Time for construction of square roots      ...    0.042 sec
Total time needed                          ...    0.126 sec

-------------------
DFT GRID GENERATION
-------------------

General Integration Accuracy     IntAcc      ... 4.388
Radial Grid Type                 RadialGrid  ... OptM3 with GC (2021)
Angular Grid (max. ang.)         AngularGrid ... 4 (Lebedev-302)
Angular grid pruning method      GridPruning ... 4 (adaptive)
Weight generation scheme         WeightScheme... mBecke (2022)
Basis function cutoff            BFCut       ... 1.0000e-10
Integration weight cutoff        WCut        ... 1.0000e-14
Partially contracted basis set               ... off
Rotationally invariant grid construction     ... off
Angular grids for H and He will be reduced by one unit
Diffuse basis detected: some atoms will have their outermost
                        angular grid increased by 1.

Total number of grid points                  ...   161930
Total number of batches                      ...     2550
Average number of points per batch           ...       63
Average number of grid points per atom       ...     4261
Initializing property integral containers    ... done (  0.0 sec)

SHARK setup successfully completed in   2.0 seconds

Maximum memory used throughout the entire STARTUP-calculation: 58.8 MB


           ************************************************************
           *        Program running with 64 parallel MPI-processes    *
           *              working on a common directory               *
           ************************************************************
-------------------------------------------------------------------------------
                                 ORCA GUESS
                   Start orbitals & Density for SCF / CASSCF
-------------------------------------------------------------------------------

------------
SCF SETTINGS
------------
Hamiltonian:
 Density Functional     Method          .... DFT(GTOs)
 Exchange Functional    Exchange        .... B88
   X-Alpha parameter    XAlpha          ....  0.666667
   Becke's b parameter  XBeta           ....  0.004200
 Correlation Functional Correlation     .... P86
 LDA part of GGA corr.  LDAOpt          .... PW91-LDA
 Gradients option       PostSCFGGA      .... off
   NL short-range parameter             ....  4.400000
 RI-approximation to the Coulomb term is turned on
   Number of AuxJ basis functions       .... 874


General Settings:
 Integral files         IntName         .... single_point_tzvpd
 Hartree-Fock type      HFTyp           .... RHF
 Total Charge           Charge          ....    0
 Multiplicity           Mult            ....    1
 Number of Electrons    NEL             ....   98
 Basis Dimension        Dim             ....  678
 Nuclear Repulsion      ENuc            ....    677.5252598492 Eh

Convergence Acceleration:
 AO-DIIS                CNVDIIS         .... on
   Start iteration      DIISMaxIt       ....    12
   Startup error        DIISStart       ....  0.200000
   # of expansion vecs  DIISMaxEq       ....     5
   Bias factor          DIISBfac        ....   1.050
   Max. coefficient     DIISMaxC        ....  10.000
 MO-DIIS                CNVKDIIS        .... off
 Trust-Rad. Augm. Hess. CNVTRAH         .... auto
   Auto Start mean grad. ratio tolernc. ....  1.125000
   Auto Start start iteration           ....    50
   Auto Start num. interpolation iter.  ....    10
   Max. Number of Micro iterations      ....    24
   Max. Number of Macro iterations      .... Maxiter - #DIIS iter
   Number of Davidson start vectors     ....     2
   Converg. threshold    (grad. norm)   ....   5.000e-05
   Grad. Scal. Fac. for Micro threshold ....   0.100
   Minimum threshold for Micro iter.    ....   1.000e-02
   NR start threshold (gradient norm)   ....   1.000e-04
   Initial trust radius                 ....   0.400
   Minimum AH scaling param. (alpha)    ....   1.000
   Maximum AH scaling param. (alpha)    .... 1000.000
   Quad. conv. algorithm                .... NR
   White noise on init. David. guess    .... on
   Maximum white noise                  ....   0.010
   Pseudo random numbers                .... off
   Inactive MOs                         .... canonical
   Orbital update algorithm             .... Taylor
   Preconditioner                       .... Diag
   Full preconditioner red. dimension   ....   250
 SOSCF                  CNVSOSCF        .... on
   Start iteration      SOSCFMaxIt      ....   150
   Startup grad/error   SOSCFStart      ....  0.003300
   Hessian update       SOSCFHessUp     .... L-BFGS
 Level Shifting         CNVShift        .... on
   Level shift para.    LevelShift      ....    0.2500
   Turn off err/grad.   ShiftErr        ....    0.0010
 Zerner damping         CNVZerner       .... off
 Static damping         CNVDamp         .... on
   Fraction old density DampFac         ....    0.7000
   Max. Damping (<1)    DampMax         ....    0.9800
   Min. Damping (>=0)   DampMin         ....    0.0000
   Turn off err/grad.   DampErr         ....    0.1000

SCF Procedure:
 Maximum # iterations   MaxIter         ....   125
 SCF integral mode      SCFMode         .... Direct
   Integral package                     .... SHARK and LIBINT hybrid scheme
 Reset frequency        DirectResetFreq ....    20
 Integral Threshold     Thresh          ....  1.000e-10 Eh
 Primitive CutOff       TCut            ....  1.000e-11 Eh

Convergence Tolerance:
 Convergence Check Mode ConvCheckMode   .... Total+1el-Energy
 Convergence forced     ConvForced      .... 0
 Energy Change          TolE            ....  1.000e-06 Eh
 1-El. energy change                    ....  1.000e-03 Eh
 Orbital Gradient       TolG            ....  5.000e-05
 Orbital Rotation angle TolX            ....  5.000e-05
 DIIS Error             TolErr          ....  1.000e-06

------------------------------
INITIAL GUESS: MODEL POTENTIAL
------------------------------
Loading Hartree-Fock densities                     ... done
Calculating cut-offs                               ... done
Initializing the effective Hamiltonian             ... done
Setting up the integral package (SHARK)            ... done
Starting the Coulomb interaction                   ... done (   0.1 sec)
Making the grid                                    ... done (   0.7 sec)
Mapping shells                                     ... done
Starting the XC term evaluation                    ... done (   0.1 sec)
  promolecular density results
     # of electrons  =     97.985269029
     EX              =    -69.469026872
     EC              =     -3.471181794
     EX+EC           =    -72.940208666
Transforming the Hamiltonian                       ... done (   0.0 sec)
Diagonalizing the Hamiltonian                      ... done (   0.1 sec)
Back transforming the eigenvectors                 ... done (   0.0 sec)
Now organizing SCF variables                       ... done
                      ------------------
                      INITIAL GUESS DONE (   1.1 sec)
                      ------------------
             **** ENERGY FILE WAS UPDATED (single_point_tzvpd.en.tmp) ****
Finished Guess after   4.5 sec
Maximum memory used throughout the entire GUESS-calculation: 46.1 MB


           ************************************************************
           *        Program running with 64 parallel MPI-processes    *
           *              working on a common directory               *
           ************************************************************

-------------------------------------------------------------------------------------------
                                      ORCA LEAN-SCF
                              memory conserving SCF solver
-------------------------------------------------------------------------------------------

--------------------
CPCM SOLVATION MODEL
--------------------
CPCM parameters:
  Epsilon                                         ...     INFINITY
  Refrac                                          ...       1.3300
  Rsolv                                           ...       1.3000
  Surface type                                    ... GAUSSIAN VDW
  Discretization scheme                           ... Constant charge density
    Threshold for H atoms                         ...       5.0000 (charges/Ang^2)
    Threshold for non-H atoms                     ...       5.0000 (charges/Ang^2)
  Epsilon function type                           ...         CPCM
Solvent:                                          ... CONDUCTOR
Radii:
  Scheme                                          ... Element-dependent radii
  Radius for C  used is    3.7795 Bohr (=   2.0000 Ang.)
  Radius for H  used is    2.4566 Bohr (=   1.3000 Ang.)
Calculating surface                               ...        done! (  0.0s)
Cavity surface points                             ...         2040
Cavity Volume                                     ...    1734.9239
Cavity Surface-area                               ...    1017.9579
Calculating surface distance matrix               ...        done! (  0.0s)
Performing Cholesky decomposition & store         ...        done! (  0.3s)
Overall time for CPCM initialization              ...                 0.3s

----------------------------------------D-I-I-S--------------------------------------------
Iteration    Energy (Eh)           Delta-E    RMSDP     MaxDP     DIISErr   Damp  Time(sec)
-------------------------------------------------------------------------------------------
               ***  Starting incremental Fock matrix formation  ***
    1    -472.6526746772220804     0.00e+00  3.35e-03  3.51e-01  1.85e-01  0.700   2.8
    2    -472.8755788113304561    -2.23e-01  2.23e-03  2.05e-01  8.86e-02  0.700   3.1
                               ***Turning on AO-DIIS***
    3    -472.9550911474369741    -7.95e-02  9.16e-04  4.19e-02  2.52e-02  0.700   2.8
    4    -473.0005215047689262    -4.54e-02  1.72e-03  9.27e-02  9.64e-03  0.000   2.8
    5    -473.1029519307011242    -1.02e-01  3.54e-04  2.68e-02  9.07e-03  0.000   2.9
                              *** Initializing SOSCF ***
---------------------------------------S-O-S-C-F--------------------------------------
Iteration    Energy (Eh)           Delta-E    RMSDP     MaxDP     MaxGrad    Time(sec)
--------------------------------------------------------------------------------------
    6    -473.1041726758677441    -1.22e-03  1.40e-04  7.90e-03  2.49e-03     3.1
               *** Restarting incremental Fock matrix formation ***
    7    -473.1042897350424710    -1.17e-04  2.01e-04  1.38e-02  5.55e-04     2.7
    8    -473.1042895606273078     1.74e-07  6.96e-05  5.75e-03  3.87e-04     2.7
                 **** Energy Check signals convergence ****

               *****************************************************
               *                     SUCCESS                       *
               *           SCF CONVERGED AFTER   8 CYCLES          *
               *****************************************************

             **** ENERGY FILE WAS UPDATED (single_point_tzvpd.en.tmp) ****

----------------
TOTAL SCF ENERGY
----------------

Total Energy       :       -473.10428956062731 Eh          -12873.82221 eV

Components:
Nuclear Repulsion  :        677.52525984919669 Eh           18436.39961 eV
Electronic Energy  :      -1150.62722663552586 Eh          -31310.15861 eV
One Electron Energy:      -1978.92779136876948 Eh          -53849.36285 eV
Two Electron Energy:        828.30056473324362 Eh           22539.20424 eV
CPCM Dielectric    :         -0.00232277429809 Eh              -0.06321 eV

Virial components:
Potential Energy   :       -943.91900928907899 Eh          -25685.34206 eV
Kinetic Energy     :        470.81471972845162 Eh           12811.51985 eV
Virial Ratio       :          2.00486299543374

DFT components:
N(Alpha)           :       49.000053769104 electrons
N(Beta)            :       49.000053769104 electrons
N(Total)           :       98.000107538208 electrons
E(X)               :      -71.579579454353 Eh       
E(C)               :       -3.446894130079 Eh       
E(XC)              :      -75.026473584432 Eh       

CPCM Solvation Model Properties:
Surface-charge          :         -0.05228341244347
Corrected charge        :          0.00000000000000
Outlying charge corr.   :          0.00015217888090 Eh               0.00414 eV
Free-energy (cav+disp)  :  This term is not implemented in the current solvation scheme

---------------
SCF CONVERGENCE
---------------

  Last Energy change         ...   -1.7442e-07  Tolerance :   1.0000e-06
  Last MAX-Density change    ...    5.7545e-03  Tolerance :   1.0000e-05
  Last RMS-Density change    ...    6.9646e-05  Tolerance :   1.0000e-06
  Last DIIS Error            ...    2.4874e-03  Tolerance :   1.0000e-06
  Last Orbital Gradient      ...    3.8666e-04  Tolerance :   5.0000e-05
  Last Orbital Rotation      ...    3.3423e-04  Tolerance :   5.0000e-05


----------------
ORBITAL ENERGIES
----------------

  NO   OCC          E(Eh)            E(eV) 
   0   2.0000      -9.879240      -268.8278 
   1   2.0000      -9.879219      -268.8272 
   2   2.0000      -9.876870      -268.7633 
   3   2.0000      -9.876768      -268.7605 
   4   2.0000      -9.875801      -268.7342 
   5   2.0000      -9.875756      -268.7330 
   6   2.0000      -9.875349      -268.7219 
   7   2.0000      -9.875310      -268.7208 
   8   2.0000      -9.875143      -268.7163 
   9   2.0000      -9.874984      -268.7120 
  10   2.0000      -9.872336      -268.6399 
  11   2.0000      -9.872327      -268.6397 
  12   2.0000      -0.738379       -20.0923 
  13   2.0000      -0.727772       -19.8037 
  14   2.0000      -0.709656       -19.3107 
  15   2.0000      -0.684541       -18.6273 
  16   2.0000      -0.653164       -17.7735 
  17   2.0000      -0.616551       -16.7772 
  18   2.0000      -0.577035       -15.7019 
  19   2.0000      -0.539628       -14.6840 
  20   2.0000      -0.517612       -14.0849 
  21   2.0000      -0.515248       -14.0206 
  22   2.0000      -0.509009       -13.8508 
  23   2.0000      -0.505890       -13.7660 
  24   2.0000      -0.435745       -11.8572 
  25   2.0000      -0.425866       -11.5884 
  26   2.0000      -0.409555       -11.1446 
  27   2.0000      -0.387936       -10.5563 
  28   2.0000      -0.384866       -10.4727 
  29   2.0000      -0.384627       -10.4662 
  30   2.0000      -0.366849        -9.9825 
  31   2.0000      -0.362698        -9.8695 
  32   2.0000      -0.359629        -9.7860 
  33   2.0000      -0.342241        -9.3129 
  34   2.0000      -0.336188        -9.1482 
  35   2.0000      -0.322593        -8.7782 
  36   2.0000      -0.314243        -8.5510 
  37   2.0000      -0.311722        -8.4824 
  38   2.0000      -0.301541        -8.2053 
  39   2.0000      -0.292842        -7.9686 
  40   2.0000      -0.289936        -7.8896 
  41   2.0000      -0.285197        -7.7606 
  42   2.0000      -0.283215        -7.7067 
  43   2.0000      -0.281215        -7.6523 
  44   2.0000      -0.277978        -7.5642 
  45   2.0000      -0.275900        -7.5076 
  46   2.0000      -0.275818        -7.5054 
  47   2.0000      -0.272615        -7.4182 
  48   2.0000      -0.238112        -6.4793 
  49   0.0000       0.005645         0.1536 
  50   0.0000       0.009627         0.2620 
  51   0.0000       0.016746         0.4557 
  52   0.0000       0.016771         0.4564 
  53   0.0000       0.027486         0.7479 
  54   0.0000       0.027782         0.7560 
  55   0.0000       0.030510         0.8302 
  56   0.0000       0.042289         1.1507 
  57   0.0000       0.043009         1.1703 
  58   0.0000       0.044253         1.2042 
  59   0.0000       0.062108         1.6900 
*Only the first 10 virtual orbitals were printed.

                    ********************************
                    * MULLIKEN POPULATION ANALYSIS *
                    ********************************

-----------------------
MULLIKEN ATOMIC CHARGES
-----------------------
   0 C :   -1.438355
   1 C :   -0.198988
   2 C :   -0.554612
   3 C :   -0.616533
   4 C :   -0.639932
   5 C :   -0.616091
   6 C :   -0.613858
   7 C :   -0.639067
   8 C :   -0.617520
   9 C :   -0.553002
  10 C :   -0.198451
  11 C :   -1.439027
  12 H :    0.395050
  13 H :    0.350812
  14 H :    0.350379
  15 H :    0.297503
  16 H :    0.298611
  17 H :    0.297917
  18 H :    0.298443
  19 H :    0.295728
  20 H :    0.296253
  21 H :    0.298125
  22 H :    0.298828
  23 H :    0.293140
  24 H :    0.293351
  25 H :    0.292519
  26 H :    0.293096
  27 H :    0.297348
  28 H :    0.298269
  29 H :    0.295322
  30 H :    0.296764
  31 H :    0.297381
  32 H :    0.298501
  33 H :    0.297741
  34 H :    0.297901
  35 H :    0.350876
  36 H :    0.395502
  37 H :    0.350077
Sum of atomic charges:    0.0000000

--------------------------------
MULLIKEN REDUCED ORBITAL CHARGES
--------------------------------
  0 C s       :     3.615236  s :     3.615236
      pz      :     1.378147  p :     3.744123
      px      :     0.991941
      py      :     1.374034
      dz2     :     0.035584  d :     0.075828
      dxz     :     0.001609
      dyz     :     0.026323
      dx2y2   :     0.014337
      dxy     :    -0.002026
      f0      :     0.000396  f :     0.003168
      f+1     :     0.000297
      f-1     :     0.000505
      f+2     :     0.000625
      f-2     :    -0.000173
      f+3     :     0.000620
      f-3     :     0.000898

  1 C s       :     3.249334  s :     3.249334
      pz      :     1.032067  p :     3.095877
      px      :     0.968188
      py      :     1.095621
      dz2     :    -0.036137  d :    -0.151785
      dxz     :    -0.040046
      dyz     :    -0.015907
      dx2y2   :    -0.015471
      dxy     :    -0.044224
      f0      :     0.000955  f :     0.005562
      f+1     :     0.000549
      f-1     :     0.000843
      f+2     :     0.001163
      f-2     :     0.000158
      f+3     :     0.000718
      f-3     :     0.001177

  2 C s       :     3.378693  s :     3.378693
      pz      :     1.046132  p :     3.134103
      px      :     0.963247
      py      :     1.124724
      dz2     :     0.001006  d :     0.036348
      dxz     :     0.021279
      dyz     :    -0.014926
      dx2y2   :     0.008157
      dxy     :     0.020833
      f0      :     0.000928  f :     0.005468
      f+1     :     0.000562
      f-1     :     0.000837
      f+2     :     0.001118
      f-2     :     0.000188
      f+3     :     0.000725
      f-3     :     0.001109

  3 C s       :     3.403147  s :     3.403147
      pz      :     1.032935  p :     3.134802
      px      :     0.985588
      py      :     1.116279
      dz2     :    -0.006940  d :     0.073099
      dxz     :     0.040955
      dyz     :    -0.018046
      dx2y2   :     0.000026
      dxy     :     0.057103
      f0      :     0.000928  f :     0.005486
      f+1     :     0.000562
      f-1     :     0.000847
      f+2     :     0.001125
      f-2     :     0.000195
      f+3     :     0.000727
      f-3     :     0.001101

  4 C s       :     3.442042  s :     3.442042
      pz      :     1.033487  p :     3.121993
      px      :     0.971998
      py      :     1.116508
      dz2     :     0.015430  d :     0.070396
      dxz     :     0.025082
      dyz     :    -0.017713
      dx2y2   :     0.008965
      dxy     :     0.038632
      f0      :     0.000931  f :     0.005500
      f+1     :     0.000559
      f-1     :     0.000847
      f+2     :     0.001127
      f-2     :     0.000198
      f+3     :     0.000725
      f-3     :     0.001112

  5 C s       :     3.439735  s :     3.439735
      pz      :     1.034637  p :     3.123951
      px      :     0.969157
      py      :     1.120157
      dz2     :    -0.007011  d :     0.046904
      dxz     :     0.030721
      dyz     :    -0.021349
      dx2y2   :     0.000293
      dxy     :     0.044250
      f0      :     0.000934  f :     0.005501
      f+1     :     0.000560
      f-1     :     0.000850
      f+2     :     0.001126
      f-2     :     0.000198
      f+3     :     0.000726
      f-3     :     0.001107

  6 C s       :     3.438036  s :     3.438036
      pz      :     1.034150  p :     3.123579
      px      :     0.969749
      py      :     1.119680
      dz2     :    -0.007207  d :     0.046741
      dxz     :     0.030872
      dyz     :    -0.021448
      dx2y2   :     0.000377
      dxy     :     0.044147
      f0      :     0.000935  f :     0.005502
      f+1     :     0.000561
      f-1     :     0.000849
      f+2     :     0.001127
      f-2     :     0.000198
      f+3     :     0.000725
      f-3     :     0.001108

  7 C s       :     3.441666  s :     3.441666
      pz      :     1.032811  p :     3.121321
      px      :     0.972649
      py      :     1.115861
      dz2     :     0.015357  d :     0.070578
      dxz     :     0.025223
      dyz     :    -0.017798
      dx2y2   :     0.009007
      dxy     :     0.038789
      f0      :     0.000933  f :     0.005503
      f+1     :     0.000561
      f-1     :     0.000846
      f+2     :     0.001128
      f-2     :     0.000197
      f+3     :     0.000725
      f-3     :     0.001113

  8 C s       :     3.403547  s :     3.403547
      pz      :     1.032937  p :     3.135142
      px      :     0.985671
      py      :     1.116534
      dz2     :    -0.006670  d :     0.073343
      dxz     :     0.040912
      dyz     :    -0.018199
      dx2y2   :     0.000081
      dxy     :     0.057220
      f0      :     0.000929  f :     0.005488
      f+1     :     0.000563
      f-1     :     0.000847
      f+2     :     0.001126
      f-2     :     0.000194
      f+3     :     0.000727
      f-3     :     0.001103

  9 C s       :     3.378716  s :     3.378716
      pz      :     1.045713  p :     3.133395
      px      :     0.963216
      py      :     1.124466
      dz2     :     0.000667  d :     0.035419
      dxz     :     0.021164
      dyz     :    -0.014958
      dx2y2   :     0.008043
      dxy     :     0.020503
      f0      :     0.000929  f :     0.005472
      f+1     :     0.000562
      f-1     :     0.000838
      f+2     :     0.001120
      f-2     :     0.000189
      f+3     :     0.000723
      f-3     :     0.001111

 10 C s       :     3.249020  s :     3.249020
      pz      :     1.032059  p :     3.095640
      px      :     0.968202
      py      :     1.095379
      dz2     :    -0.036267  d :    -0.151774
      dxz     :    -0.040030
      dyz     :    -0.015910
      dx2y2   :    -0.015366
      dxy     :    -0.044201
      f0      :     0.000956  f :     0.005565
      f+1     :     0.000550
      f-1     :     0.000842
      f+2     :     0.001164
      f-2     :     0.000159
      f+3     :     0.000717
      f-3     :     0.001177

 11 C s       :     3.615336  s :     3.615336
      pz      :     1.378207  p :     3.744549
      px      :     0.992118
      py      :     1.374224
      dz2     :     0.035554  d :     0.075977
      dxz     :     0.001716
      dyz     :     0.026290
      dx2y2   :     0.014389
      dxy     :    -0.001972
      f0      :     0.000395  f :     0.003166
      f+1     :     0.000298
      f-1     :     0.000504
      f+2     :     0.000625
      f-2     :    -0.000173
      f+3     :     0.000619
      f-3     :     0.000897

 12 H s       :     0.535971  s :     0.535971
      pz      :     0.028521  p :     0.068979
      px      :     0.015724
      py      :     0.024735

 13 H s       :     0.571267  s :     0.571267
      pz      :     0.027177  p :     0.077921
      px      :     0.013238
      py      :     0.037506

 14 H s       :     0.571656  s :     0.571656
      pz      :     0.035148  p :     0.077965
      px      :     0.013286
      py      :     0.029531

 15 H s       :     0.640919  s :     0.640919
      pz      :     0.031691  p :     0.061578
      px      :     0.018515
      py      :     0.011372

 16 H s       :     0.639713  s :     0.639713
      pz      :     0.008436  p :     0.061675
      px      :     0.018564
      py      :     0.034675

 17 H s       :     0.660726  s :     0.660726
      pz      :     0.032756  p :     0.041357
      px      :     0.008391
      py      :     0.000209

 18 H s       :     0.660374  s :     0.660374
      pz      :    -0.007075  p :     0.041183
      px      :     0.008268
      py      :     0.039989

 19 H s       :     0.668549  s :     0.668549
      pz      :     0.022726  p :     0.035723
      px      :    -0.002285
      py      :     0.015283

 20 H s       :     0.668807  s :     0.668807
      pz      :     0.010080  p :     0.034940
      px      :    -0.002903
      py      :     0.027763

 21 H s       :     0.672638  s :     0.672638
      pz      :     0.024944  p :     0.029238
      px      :    -0.000002
      py      :     0.004296

 22 H s       :     0.672311  s :     0.672311
      pz      :    -0.002798  p :     0.028861
      px      :    -0.000189
      py      :     0.031848

 23 H s       :     0.675961  s :     0.675961
      pz      :     0.023585  p :     0.030899
      px      :    -0.001610
      py      :     0.008924

 24 H s       :     0.674921  s :     0.674921
      pz      :     0.003341  p :     0.031728
      px      :    -0.001344
      py      :     0.029730

 25 H s       :     0.676421  s :     0.676421
      pz      :     0.023605  p :     0.031060
      px      :    -0.001511
      py      :     0.008966

 26 H s       :     0.675318  s :     0.675318
      pz      :     0.003293  p :     0.031586
      px      :    -0.001462
      py      :     0.029756

 27 H s       :     0.673465  s :     0.673465
      pz      :     0.024908  p :     0.029186
      px      :    -0.000063
      py      :     0.004341

 28 H s       :     0.673005  s :     0.673005
      pz      :    -0.002840  p :     0.028726
      px      :    -0.000289
      py      :     0.031855

 29 H s       :     0.669182  s :     0.669182
      pz      :     0.022671  p :     0.035496
      px      :    -0.002383
      py      :     0.015208

 30 H s       :     0.668157  s :     0.668157
      pz      :     0.010083  p :     0.035079
      px      :    -0.002790
      py      :     0.027786

 31 H s       :     0.661251  s :     0.661251
      pz      :     0.032764  p :     0.041368
      px      :     0.008423
      py      :     0.000181

 32 H s       :     0.660197  s :     0.660197
      pz      :    -0.007126  p :     0.041302
      px      :     0.008367
      py      :     0.040061

 33 H s       :     0.640655  s :     0.640655
      pz      :     0.031706  p :     0.061604
      px      :     0.018588
      py      :     0.011309

 34 H s       :     0.640513  s :     0.640513
      pz      :     0.008365  p :     0.061586
      px      :     0.018543
      py      :     0.034678

 35 H s       :     0.571182  s :     0.571182
      pz      :     0.027209  p :     0.077942
      px      :     0.013223
      py      :     0.037511

 36 H s       :     0.535498  s :     0.535498
      pz      :     0.028550  p :     0.069000
      px      :     0.015673
      py      :     0.024776

 37 H s       :     0.571986  s :     0.571986
      pz      :     0.035107  p :     0.077937
      px      :     0.013296
      py      :     0.029533



                     *******************************
                     * LOEWDIN POPULATION ANALYSIS *
                     *******************************

----------------------
LOEWDIN ATOMIC CHARGES
----------------------
   0 C :   -0.137565
   1 C :   -0.289154
   2 C :   -0.244943
   3 C :   -0.236823
   4 C :   -0.236960
   5 C :   -0.236617
   6 C :   -0.236464
   7 C :   -0.237225
   8 C :   -0.237051
   9 C :   -0.245157
  10 C :   -0.289361
  11 C :   -0.137272
  12 H :    0.068102
  13 H :    0.073444
  14 H :    0.073483
  15 H :    0.110507
  16 H :    0.110293
  17 H :    0.117951
  18 H :    0.118317
  19 H :    0.118152
  20 H :    0.118318
  21 H :    0.118254
  22 H :    0.118367
  23 H :    0.118386
  24 H :    0.118311
  25 H :    0.118678
  26 H :    0.118422
  27 H :    0.118470
  28 H :    0.118461
  29 H :    0.118258
  30 H :    0.118257
  31 H :    0.118133
  32 H :    0.118110
  33 H :    0.110526
  34 H :    0.110565
  35 H :    0.073383
  36 H :    0.067882
  37 H :    0.073564

-------------------------------
LOEWDIN REDUCED ORBITAL CHARGES
-------------------------------
  0 C s       :     2.742192  s :     2.742192
      pz      :     0.965541  p :     2.890522
      px      :     0.957746
      py      :     0.967235
      dz2     :     0.062001  d :     0.477698
      dxz     :     0.139757
      dyz     :     0.045733
      dx2y2   :     0.089255
      dxy     :     0.140952
      f0      :     0.002619  f :     0.027154
      f+1     :     0.003913
      f-1     :     0.003339
      f+2     :     0.004106
      f-2     :     0.002448
      f+3     :     0.004780
      f-3     :     0.005948

  1 C s       :     2.689536  s :     2.689536
      pz      :     0.926293  p :     2.777042
      px      :     0.922980
      py      :     0.927769
      dz2     :     0.173564  d :     0.781394
      dxz     :     0.180531
      dyz     :     0.082762
      dx2y2   :     0.175966
      dxy     :     0.168571
      f0      :     0.005437  f :     0.041182
      f+1     :     0.005650
      f-1     :     0.005730
      f+2     :     0.007327
      f-2     :     0.004214
      f+3     :     0.005613
      f-3     :     0.007210

  2 C s       :     2.683665  s :     2.683665
      pz      :     0.916258  p :     2.744578
      px      :     0.909463
      py      :     0.918857
      dz2     :     0.177407  d :     0.776143
      dxz     :     0.176703
      dyz     :     0.089480
      dx2y2   :     0.168516
      dxy     :     0.164038
      f0      :     0.005351  f :     0.040558
      f+1     :     0.005682
      f-1     :     0.005688
      f+2     :     0.007129
      f-2     :     0.004221
      f+3     :     0.005565
      f-3     :     0.006921

  3 C s       :     2.682122  s :     2.682122
      pz      :     0.916121  p :     2.742700
      px      :     0.907854
      py      :     0.918725
      dz2     :     0.176567  d :     0.771359
      dxz     :     0.175261
      dyz     :     0.088072
      dx2y2   :     0.168100
      dxy     :     0.163358
      f0      :     0.005358  f :     0.040642
      f+1     :     0.005710
      f-1     :     0.005708
      f+2     :     0.007135
      f-2     :     0.004231
      f+3     :     0.005607
      f-3     :     0.006893

  4 C s       :     2.681526  s :     2.681526
      pz      :     0.915140  p :     2.741146
      px      :     0.908113
      py      :     0.917894
      dz2     :     0.177084  d :     0.773599
      dxz     :     0.175809
      dyz     :     0.088762
      dx2y2   :     0.168071
      dxy     :     0.163873
      f0      :     0.005375  f :     0.040689
      f+1     :     0.005706
      f-1     :     0.005714
      f+2     :     0.007147
      f-2     :     0.004220
      f+3     :     0.005612
      f-3     :     0.006917

  5 C s       :     2.681395  s :     2.681395
      pz      :     0.915316  p :     2.741270
      px      :     0.907925
      py      :     0.918029
      dz2     :     0.177099  d :     0.773211
      dxz     :     0.175694
      dyz     :     0.088910
      dx2y2   :     0.167667
      dxy     :     0.163841
      f0      :     0.005398  f :     0.040742
      f+1     :     0.005715
      f-1     :     0.005732
      f+2     :     0.007152
      f-2     :     0.004224
      f+3     :     0.005621
      f-3     :     0.006898

  6 C s       :     2.681484  s :     2.681484
      pz      :     0.915225  p :     2.741175
      px      :     0.907947
      py      :     0.918004
      dz2     :     0.177013  d :     0.773057
      dxz     :     0.175786
      dyz     :     0.088831
      dx2y2   :     0.167721
      dxy     :     0.163706
      f0      :     0.005399  f :     0.040748
      f+1     :     0.005717
      f-1     :     0.005727
      f+2     :     0.007155
      f-2     :     0.004227
      f+3     :     0.005612
      f-3     :     0.006912

  7 C s       :     2.681487  s :     2.681487
      pz      :     0.915151  p :     2.741121
      px      :     0.908094
      py      :     0.917876
      dz2     :     0.177166  d :     0.773898
      dxz     :     0.175995
      dyz     :     0.088713
      dx2y2   :     0.168185
      dxy     :     0.163839
      f0      :     0.005380  f :     0.040719
      f+1     :     0.005714
      f-1     :     0.005713
      f+2     :     0.007153
      f-2     :     0.004227
      f+3     :     0.005608
      f-3     :     0.006924

  8 C s       :     2.682076  s :     2.682076
      pz      :     0.916112  p :     2.742553
      px      :     0.907688
      py      :     0.918752
      dz2     :     0.176758  d :     0.771772
      dxz     :     0.175375
      dyz     :     0.088063
      dx2y2   :     0.168305
      dxy     :     0.163271
      f0      :     0.005360  f :     0.040651
      f+1     :     0.005716
      f-1     :     0.005710
      f+2     :     0.007132
      f-2     :     0.004234
      f+3     :     0.005601
      f-3     :     0.006898

  9 C s       :     2.683445  s :     2.683445
      pz      :     0.916359  p :     2.744740
      px      :     0.909335
      py      :     0.919046
      dz2     :     0.177601  d :     0.776349
      dxz     :     0.176715
      dyz     :     0.089486
      dx2y2   :     0.168771
      dxy     :     0.163776
      f0      :     0.005367  f :     0.040622
      f+1     :     0.005687
      f-1     :     0.005701
      f+2     :     0.007141
      f-2     :     0.004228
      f+3     :     0.005561
      f-3     :     0.006938

 10 C s       :     2.689437  s :     2.689437
      pz      :     0.926487  p :     2.776919
      px      :     0.922727
      py      :     0.927705
      dz2     :     0.173802  d :     0.781792
      dxz     :     0.180664
      dyz     :     0.082701
      dx2y2   :     0.176256
      dxy     :     0.168369
      f0      :     0.005451  f :     0.041214
      f+1     :     0.005661
      f-1     :     0.005731
      f+2     :     0.007328
      f-2     :     0.004221
      f+3     :     0.005606
      f-3     :     0.007216

 11 C s       :     2.742260  s :     2.742260
      pz      :     0.965619  p :     2.890519
      px      :     0.957575
      py      :     0.967325
      dz2     :     0.061930  d :     0.477366
      dxz     :     0.139682
      dyz     :     0.045710
      dx2y2   :     0.089302
      dxy     :     0.140741
      f0      :     0.002617  f :     0.027127
      f+1     :     0.003915
      f-1     :     0.003332
      f+2     :     0.004099
      f-2     :     0.002448
      f+3     :     0.004771
      f-3     :     0.005945

 12 H s       :     0.708522  s :     0.708522
      pz      :     0.087906  p :     0.223376
      px      :     0.059057
      py      :     0.076413

 13 H s       :     0.702472  s :     0.702472
      pz      :     0.060316  p :     0.224084
      px      :     0.058929
      py      :     0.104840

 14 H s       :     0.702471  s :     0.702471
      pz      :     0.099867  p :     0.224046
      px      :     0.058927
      py      :     0.065253

 15 H s       :     0.684435  s :     0.684435
      pz      :     0.086172  p :     0.205058
      px      :     0.059527
      py      :     0.059359

 16 H s       :     0.684517  s :     0.684517
      pz      :     0.053043  p :     0.205190
      px      :     0.059558
      py      :     0.092589

 17 H s       :     0.676119  s :     0.676119
      pz      :     0.088149  p :     0.205931
      px      :     0.059774
      py      :     0.058007

 18 H s       :     0.675979  s :     0.675979
      pz      :     0.052475  p :     0.205704
      px      :     0.059664
      py      :     0.093565

 19 H s       :     0.676182  s :     0.676182
      pz      :     0.087841  p :     0.205666
      px      :     0.059803
      py      :     0.058021

 20 H s       :     0.676114  s :     0.676114
      pz      :     0.052625  p :     0.205568
      px      :     0.059716
      py      :     0.093227

 21 H s       :     0.675655  s :     0.675655
      pz      :     0.087956  p :     0.206091
      px      :     0.060159
      py      :     0.057975

 22 H s       :     0.675614  s :     0.675614
      pz      :     0.052623  p :     0.206019
      px      :     0.060144
      py      :     0.093253

 23 H s       :     0.675732  s :     0.675732
      pz      :     0.087801  p :     0.205882
      px      :     0.060061
      py      :     0.058019

 24 H s       :     0.675712  s :     0.675712
      pz      :     0.052635  p :     0.205977
      px      :     0.060091
      py      :     0.093252

 25 H s       :     0.675659  s :     0.675659
      pz      :     0.087734  p :     0.205664
      px      :     0.059989
      py      :     0.057941

 26 H s       :     0.675722  s :     0.675722
      pz      :     0.052614  p :     0.205856
      px      :     0.059991
      py      :     0.093250

 27 H s       :     0.675577  s :     0.675577
      pz      :     0.087904  p :     0.205953
      px      :     0.060125
      py      :     0.057923

 28 H s       :     0.675537  s :     0.675537
      pz      :     0.052631  p :     0.206002
      px      :     0.060101
      py      :     0.093270

 29 H s       :     0.676102  s :     0.676102
      pz      :     0.087825  p :     0.205640
      px      :     0.059809
      py      :     0.058006

 30 H s       :     0.676107  s :     0.676107
      pz      :     0.052627  p :     0.205636
      px      :     0.059731
      py      :     0.093278

 31 H s       :     0.676057  s :     0.676057
      pz      :     0.088122  p :     0.205809
      px      :     0.059763
      py      :     0.057925

 32 H s       :     0.676034  s :     0.676034
      pz      :     0.052526  p :     0.205856
      px      :     0.059704
      py      :     0.093626

 33 H s       :     0.684396  s :     0.684396
      pz      :     0.086166  p :     0.205078
      px      :     0.059595
      py      :     0.059317

 34 H s       :     0.684375  s :     0.684375
      pz      :     0.052986  p :     0.205059
      px      :     0.059514
      py      :     0.092560

 35 H s       :     0.702514  s :     0.702514
      pz      :     0.060334  p :     0.224103
      px      :     0.058922
      py      :     0.104847

 36 H s       :     0.708617  s :     0.708617
      pz      :     0.087952  p :     0.223500
      px      :     0.059068
      py      :     0.076480

 37 H s       :     0.702460  s :     0.702460
      pz      :     0.099837  p :     0.223976
      px      :     0.058946
      py      :     0.065193



                      *****************************
                      * MAYER POPULATION ANALYSIS *
                      *****************************

  NA   - Mulliken gross atomic population
  ZA   - Total nuclear charge
  QA   - Mulliken gross atomic charge
  VA   - Mayer's total valence
  BVA  - Mayer's bonded valence
  FA   - Mayer's free valence

  ATOM       NA         ZA         QA         VA         BVA        FA
  0 C      7.4384     6.0000    -1.4384     3.5167     3.5167    -0.0000
  1 C      6.1990     6.0000    -0.1990     2.8487     2.8487     0.0000
  2 C      6.5546     6.0000    -0.5546     3.3814     3.3814    -0.0000
  3 C      6.6165     6.0000    -0.6165     3.4286     3.4286     0.0000
  4 C      6.6399     6.0000    -0.6399     3.4341     3.4341     0.0000
  5 C      6.6161     6.0000    -0.6161     3.3260     3.3260     0.0000
  6 C      6.6139     6.0000    -0.6139     3.3274     3.3274     0.0000
  7 C      6.6391     6.0000    -0.6391     3.4362     3.4362     0.0000
  8 C      6.6175     6.0000    -0.6175     3.4253     3.4253    -0.0000
  9 C      6.5530     6.0000    -0.5530     3.3795     3.3795     0.0000
 10 C      6.1985     6.0000    -0.1985     2.8482     2.8482    -0.0000
 11 C      7.4390     6.0000    -1.4390     3.5167     3.5167    -0.0000
 12 H      0.6050     1.0000     0.3950     0.9336     0.9336    -0.0000
 13 H      0.6492     1.0000     0.3508     0.9951     0.9951     0.0000
 14 H      0.6496     1.0000     0.3504     0.9958     0.9958    -0.0000
 15 H      0.7025     1.0000     0.2975     0.9153     0.9153     0.0000
 16 H      0.7014     1.0000     0.2986     0.9143     0.9143     0.0000
 17 H      0.7021     1.0000     0.2979     0.9032     0.9032    -0.0000
 18 H      0.7016     1.0000     0.2984     0.9021     0.9021    -0.0000
 19 H      0.7043     1.0000     0.2957     0.8869     0.8869    -0.0000
 20 H      0.7037     1.0000     0.2963     0.8857     0.8857     0.0000
 21 H      0.7019     1.0000     0.2981     0.8686     0.8686    -0.0000
 22 H      0.7012     1.0000     0.2988     0.8673     0.8673    -0.0000
 23 H      0.7069     1.0000     0.2931     0.8608     0.8608     0.0000
 24 H      0.7066     1.0000     0.2934     0.8615     0.8615    -0.0000
 25 H      0.7075     1.0000     0.2925     0.8612     0.8612     0.0000
 26 H      0.7069     1.0000     0.2931     0.8617     0.8617     0.0000
 27 H      0.7027     1.0000     0.2973     0.8689     0.8689    -0.0000
 28 H      0.7017     1.0000     0.2983     0.8675     0.8675    -0.0000
 29 H      0.7047     1.0000     0.2953     0.8871     0.8871    -0.0000
 30 H      0.7032     1.0000     0.2968     0.8854     0.8854    -0.0000
 31 H      0.7026     1.0000     0.2974     0.9033     0.9033     0.0000
 32 H      0.7015     1.0000     0.2985     0.9022     0.9022     0.0000
 33 H      0.7023     1.0000     0.2977     0.9150     0.9150    -0.0000
 34 H      0.7021     1.0000     0.2979     0.9148     0.9148    -0.0000
 35 H      0.6491     1.0000     0.3509     0.9952     0.9952    -0.0000
 36 H      0.6045     1.0000     0.3955     0.9335     0.9335     0.0000
 37 H      0.6499     1.0000     0.3501     0.9960     0.9960    -0.0000

  Mayer bond orders larger than 0.100000
B(  0-C ,  1-C ) :   0.4670 B(  0-C ,  2-C ) :   0.2380 B(  0-C , 12-H ) :   0.9055 
B(  0-C , 13-H ) :   0.9455 B(  0-C , 14-H ) :   0.9463 B(  1-C ,  2-C ) :   0.4950 
B(  1-C ,  3-C ) :   0.3227 B(  1-C , 15-H ) :   0.9301 B(  1-C , 16-H ) :   0.9300 
B(  2-C ,  3-C ) :   0.4791 B(  2-C ,  4-C ) :   0.3978 B(  2-C , 17-H ) :   0.9603 
B(  2-C , 18-H ) :   0.9596 B(  3-C ,  4-C ) :   0.4541 B(  3-C ,  5-C ) :   0.4044 
B(  3-C , 19-H ) :   0.9571 B(  3-C , 20-H ) :   0.9579 B(  4-C ,  5-C ) :   0.3918 
B(  4-C ,  6-C ) :   0.4179 B(  4-C , 21-H ) :   0.9720 B(  4-C , 22-H ) :   0.9714 
B(  5-C ,  6-C ) :   0.3670 B(  5-C ,  7-C ) :   0.4183 B(  5-C , 23-H ) :   0.9817 
B(  5-C , 24-H ) :   0.9816 B(  6-C ,  7-C ) :   0.3933 B(  6-C ,  8-C ) :   0.4046 
B(  6-C , 25-H ) :   0.9817 B(  6-C , 26-H ) :   0.9813 B(  7-C ,  8-C ) :   0.4527 
B(  7-C ,  9-C ) :   0.3982 B(  7-C , 27-H ) :   0.9725 B(  7-C , 28-H ) :   0.9719 
B(  8-C ,  9-C ) :   0.4776 B(  8-C , 10-C ) :   0.3232 B(  8-C , 29-H ) :   0.9577 
B(  8-C , 30-H ) :   0.9574 B(  9-C , 10-C ) :   0.4938 B(  9-C , 11-C ) :   0.2381 
B(  9-C , 31-H ) :   0.9606 B(  9-C , 32-H ) :   0.9600 B( 10-C , 11-C ) :   0.4669 
B( 10-C , 33-H ) :   0.9299 B( 10-C , 34-H ) :   0.9303 B( 11-C , 35-H ) :   0.9454 
B( 11-C , 36-H ) :   0.9052 B( 11-C , 37-H ) :   0.9464 

-------
TIMINGS
-------

Total SCF time: 0 days 0 hours 0 min 29 sec 

Total time                  ....      29.286 sec
Sum of individual times     ....      29.193 sec  ( 99.7%)

SCF preparation             ....       5.547 sec  ( 18.9%)
Fock matrix formation       ....      19.779 sec  ( 67.5%)
  Startup                   ....       0.152 sec  (  0.8% of F)
  Split-RI-J                ....       1.453 sec  (  7.3% of F)
  XC integration            ....      16.761 sec  ( 84.7% of F)
    XC Preparation          ....       0.000 sec  (  0.0% of XC)
    Basis function eval.    ....       0.159 sec  (  0.9% of XC)
    Density eval.           ....       0.224 sec  (  1.3% of XC)
    XC-Functional eval.     ....       0.015 sec  (  0.1% of XC)
    XC-Potential eval.      ....       0.362 sec  (  2.2% of XC)
  CPCM terms                ....       1.046 sec  (  5.3% of F)
Diagonalization             ....       0.000 sec  (  0.0%)
Density matrix formation    ....       0.334 sec  (  1.1%)
Total Energy calculation    ....       0.225 sec  (  0.8%)
Population analysis         ....       0.246 sec  (  0.8%)
Orbital Transformation      ....       0.501 sec  (  1.7%)
Orbital Orthonormalization  ....       0.000 sec  (  0.0%)
DIIS solution               ....       1.991 sec  (  6.8%)
SOSCF solution              ....       0.570 sec  (  1.9%)
Finished LeanSCF after  29.5 sec

Maximum memory used throughout the entire LEANSCF-calculation: 66.8 MB

-------------------------   --------------------
FINAL SINGLE POINT ENERGY      -473.104289560627
-------------------------   --------------------



           ************************************************************
           *        Program running with 64 parallel MPI-processes    *
           *              working on a common directory               *
           ************************************************************

------------------------------------------------------------------------------
                              ORCA PROPERTY CALCULATIONS
------------------------------------------------------------------------------

GBWName                                 ... single_point_tzvpd.gbw
Number of atoms                         ...     38
Number of basis functions               ...    678
Max core memory                         ...   2000 MB

Electric properties:
Dipole moment                           ... YES
Quadrupole moment                       ...  NO
Static polarizability (Dipole/Dipole)   ...  NO
Static polarizability (Dipole/Quad.)    ...  NO
Static polarizability (Quad./Quad.)     ...  NO
Static polarizability (Velocity)        ...  NO

Atomic electric properties:
Dipole moment                           ...  NO
Quadrupole moment                       ...  NO
Static polarizability                   ...  NO

Choice of electric origin               ... Center of mass
Position of electric origin             ...    13.014317    -4.014917    -5.501304

General magnetic properties:
Magnetizability                         ...  NO

EPR properties:
g-Tensor (aka g-matrix)                 ...  NO
Zero-Field splitting spin-orbit         ...  NO
Zero-field splitting spin-spin          ...  NO
Hyperfine couplings                     ...  NO (   0 nuclei)
Quadrupole couplings                    ...  NO (   0 nuclei)
Contact density                         ...  NO (   0 nuclei)

NMR properties:
Chemical shifts                         ...  NO (   0 nuclei)
Spin-rotation constants                 ...  NO (   0 nuclei)
Spin-spin couplings                     ...  NO (   0 nuclei,    0 pairs)

Choice of magnetic origin               ... GIAO
Position of magnetic origin             ...     0.000000     0.000000     0.000000

Properties with geometric perturbations:
SCF Hessian                             ...  NO
IR spectrum                             ...  NO
VCD spectrum                            ...  NO
X-ray spectroscopy properties:
SCF XES/XAS/RIXS spectra                ...  NO


-------------
DIPOLE MOMENT
-------------

Method             : SCF
Type of density    : Electron Density
Multiplicity       :   1
Irrep              :   0
Energy             :  -473.1042895606273078 Eh
Relativity type    : 
Basis              : AO
                                X                 Y                 Z
Electronic contribution:      0.001290229       0.000811055       0.002146821
Nuclear contribution   :     -0.001116656      -0.000422054      -0.002081161
                        -----------------------------------------
Total Dipole Moment    :      0.000173572       0.000389002       0.000065659
                        -----------------------------------------
Magnitude (a.u.)       :      0.000431000
Magnitude (Debye)      :      0.001095515



--------------------
Rotational spectrum 
--------------------
 
Rotational constants in cm-1:             0.229772             0.005087             0.005032 
Rotational constants in MHz :          6888.385266           152.490295           150.869443 

Dipole components along the rotational axes: 
x,y,z [a.u.] :    -0.000019     0.000336     0.000269 
x,y,z [Debye]:    -0.000048     0.000855     0.000684 

 

Dipole moment calculation done in   0.0 sec 

Maximum memory used throughout the entire PROP-calculation: 47.7 MB

--------------------------------
SUGGESTED CITATIONS FOR THIS RUN
--------------------------------

Below you find a list of papers that are relevant to this ORCA run
We neither can nor want to force you to cite these papers, but we appreciate if you do
You receive ORCA, which is the product of decades of hard work by many enthusiastic individuals, for free
The only thing we kindly ask in return is that you cite our papers,
We deeply appreciate it, if you show your appreciation for ORCA by not just citing the generic ORCA reference.

Please note that relegating all ORCA citations to the supporting information does *not* help us.
SI sections are not indexed - citations you put there will not count into any citation statistics
But we need these citations in order to attract the funding resources that allow us to do what we are doing

Therefore, if you are a happy ORCA user, please consider citing a few of the papers listed below in the main body of your paper

In addition to the list printed below, the program has created the file single_point_tzvpd.bibtex that contains the list in bibtex format
You can import this file easily into all common literature databanks and citation aid programs


List of essential papers. We consider these as the minimum necessary citations

  1. Neese,F.
     Software update: the ORCA program system, version 5.0
     WIRES Comput. Molec. Sci., 2022 12(1)e1606
     doi.org/10.1002/wcms.1606

List of papers to cite with high priority. The work reported in these papers was absolutely
necessary for this run to complete.
Our perspective: the developers of density functionals and basis sets usually get cited in chemistry papers
Good! But without the algorithms to do something with them, the functionals or basis sets would not do anything.
Hence, in our opinion, the algorithm design and method developments papers are equally worthy of getting cited

  1. Neese,F.
     An improvement of the resolution of the identity approximation for the formation of the Coulomb matrix
     J. Comp. Chem., 2003 24(14)1740-1747
     doi.org/10.1002/jcc.10318
  2. Garcia-Rates,M.; Neese,F.
     Effect of the Solute Cavity on the Solvation Energy and its Derivatives within the Framework of the Gaussian Charge Scheme
     J. Comput. Chem., 2020 41 922-939
     doi.org/10.1002/jcc.26139
  3. Neese,F.
     The SHARK Integral Generation and Digestion System
     J. Comp. Chem., 2022  1-16
     doi.org/10.1002/jcc.26942

List of suggested additional citations. These are papers that are important in the 'surrounding' of 
of this run, or papers that preceded the highly important papers. If you like your results we are grateful for a citation.

  1. Neese,F.
     The ORCA program system
     WIRES Comput. Molec. Sci., 2012 2(1)73-78
     doi.org/10.1002/wcms.81
  2. Neese,F.
     Software update: the ORCA program system, version 4.0
     WIRES Comput. Molec. Sci., 2018 8(1)1-6
     doi.org/10.1002/wcms.1327
  3. Neese,F.; Wennmohs,F.; Becker,U.; Riplinger,C.
     The ORCA quantum chemistry program package
     J. Chem. Phys., 2020 152 Art. No. L224108
     doi.org/10.1063/5.0004608

List of optional additional citations

  1. Neese,F.
     Approximate second-order SCF convergence for spin unrestricted wavefunctions
     Chem. Phys. Lett., 2000 325(1-3)93-98
     doi.org/10.1016/s0009-2614(00)00662-x

Timings for individual modules:

Sum of individual times          ...       45.810 sec (=   0.763 min)
Startup calculation              ...        5.498 sec (=   0.092 min)  12.0 %
SCF iterations                   ...       35.907 sec (=   0.598 min)  78.4 %
Property calculations            ...        4.405 sec (=   0.073 min)   9.6 %
                             ****ORCA TERMINATED NORMALLY****
TOTAL RUN TIME: 0 days 0 hours 0 minutes 49 seconds 374 msec
