
                                 *****************
                                 * O   R   C   A *
                                 *****************

                                            #,                                       
                                            ###                                      
                                            ####                                     
                                            #####                                    
                                            ######                                   
                                           ########,                                 
                                     ,,################,,,,,                         
                               ,,#################################,,                 
                          ,,##########################################,,             
                       ,#########################################, ''#####,          
                    ,#############################################,,   '####,        
                  ,##################################################,,,,####,       
                ,###########''''           ''''###############################       
              ,#####''   ,,,,##########,,,,          '''####'''          '####       
            ,##' ,,,,###########################,,,                        '##       
           ' ,,###''''                  '''############,,,                           
         ,,##''                                '''############,,,,        ,,,,,,###''
      ,#''                                            '''#######################'''  
     '                                                          ''''####''''         
             ,#######,   #######,   ,#######,      ##                                
            ,#'     '#,  ##    ##  ,#'     '#,    #''#        ,####,   ,####,        
            ##       ##  ##   ,#'  ##            #'  '#       #'       #'  '#        
            ##       ##  #######   ##           ,######,      #####,   #    #        
            '#,     ,#'  ##    ##  '#,     ,#' ,#      #,     #,   #   #,  ,#        
             '#######'   ##     ##  '#######'  #'      '#     '####' # '####'        



                #########################################################
                #                        -***-                          #
                #          Department of theory and spectroscopy        #
                #                                                       #
                #                      Frank Neese                      #
                #                                                       #
                #     Directorship, Architecture, Infrastructure        #
                #                    SHARK, DRIVERS                     #
                #        Core code/Algorithms in most modules           #
                #                                                       #
                #        Max Planck Institute fuer Kohlenforschung      #
                #                Kaiser Wilhelm Platz 1                 #
                #                 D-45470 Muelheim/Ruhr                 #
                #                      Germany                          #
                #                                                       #
                #                  All rights reserved                  #
                #                        -***-                          #
                #########################################################


                         Program Version 6.0.0  -   RELEASE  -


 With contributions from (in alphabetic order):
   Daniel Aravena         : Magnetic Suceptibility
   Michael Atanasov       : Ab Initio Ligand Field Theory (pilot matlab implementation)
   Alexander A. Auer      : GIAO ZORA, VPT2 properties, NMR spectrum
   Ute Becker             : All parallelization in ORCA, NUMFREQ, NUMCALC
   Giovanni Bistoni       : ED, misc. LED, open-shell LED, HFLD
   Martin Brehm           : Molecular dynamics
   Dmytro Bykov           : pre 5.0 version of the SCF Hessian
   Marcos Casanova-Páez   : Triplet and SCS-CIS(D). UHF-(DLPNO)-IP/EA/STEOM-CCSD. UHF-CVS-IP/STEOM-CCSD
   Vijay G. Chilkuri      : MRCI spin determinant printing, contributions to CSF-ICE
   Pauline Colinet        : FMM embedding
   Dipayan Datta          : RHF DLPNO-CCSD density
   Achintya Kumar Dutta   : EOM-CC, STEOM-CC
   Nicolas Foglia         : Exact transition moments, OPA infrastructure, MCD improvements
   Dmitry Ganyushin       : Spin-Orbit,Spin-Spin,Magnetic field MRCI
   Miquel Garcia          : C-PCM and meta-GGA Hessian, CCSD/C-PCM, Gaussian charge scheme
   Tiago L. C. Gouveia    : GS-ROHF, GS-ROCIS
   Yang Guo               : DLPNO-NEVPT2, F12-NEVPT2, CIM, IAO-localization
   Andreas Hansen         : Spin unrestricted coupled pair/coupled cluster methods
   Ingolf Harden          : AUTO-CI MPn and infrastructure 
   Benjamin Helmich-Paris : MC-RPA, TRAH-(SCF,CASSCF), AVAS, COSX integrals, SCF dyn. polar.
   Lee Huntington         : MR-EOM, pCC
   Robert Izsak           : Overlap fitted RIJCOSX, COSX-SCS-MP3, EOM
   Riya Kayal             : Wick's Theorem for AUTO-CI, AUTO-CI UHF-CCSDT
   Emily Kempfer          : AUTO-CI, RHF CISDT and CCSDT
   Christian Kollmar      : KDIIS, OOCD, Brueckner-CCSD(T), CCSD density, CASPT2, CASPT2-K, improved NEVPT2
   Axel Koslowski         : Symmetry handling
   Simone Kossmann        : Meta GGA functionals, TD-DFT gradient, OOMP2, (MP2 Hessian; deprecated post 5.0)
   Lucas Lang             : DCDCAS
   Marvin Lechner         : AUTO-CI (C++ implementation), FIC-MRCC
   Spencer Leger          : CASSCF response
   Dagmar Lenk            : GEPOL surface, SMD, ORCA-2-JSON
   Dimitrios Liakos       : Extrapolation schemes; Compound Job, initial MDCI parallelization
   Dimitrios Manganas     : Further ROCIS development; embedding schemes. LFT, Crystal Embedding
   Dimitrios Pantazis     : SARC Basis sets
   Anastasios Papadopoulos: AUTO-CI, single reference methods and gradients
   Taras Petrenko         : pre 6.0 DFT Hessian and TD-DFT gradient, (ASA, deprecated), ECA, 1-Electron XAS/XES, NRVS
   Peter Pinski           : DLPNO-MP2, DLPNO-MP2 Gradient
   Christoph Reimann      : Effective Core Potentials
   Marius Retegan         : Local ZFS, SOC
   Christoph Riplinger    : Optimizer, TS searches, QM/MM, DLPNO-CCSD(T), (RO)-DLPNO pert. Triples
   Michael Roemelt        : Original ROCIS implementation
   Masaaki Saitow         : Open-shell DLPNO-CCSD energy and density
   Barbara Sandhoefer     : DKH picture change effects
   Kantharuban Sivalingam : CASSCF convergence/infrastructure, NEVPT2 and variants, FIC-MRCI
   Bernardo de Souza      : ESD, SOC TD-DFT
   Georgi Stoychev        : AutoAux, RI-MP2 NMR, DLPNO-MP2 response, X2C
   Van Anh Tran           : RI-MP2 g-tensors
   Willem Van den Heuvel  : Paramagnetic NMR
   Zikuan Wang            : NOTCH, Electric field optimization 
   Frank Wennmohs         : Technical directorship and infrastructure
   Hang Xu                : AUTO-CI-Response properties 


 We gratefully acknowledge several colleagues who have allowed us to
 interface, adapt or use parts of their codes:
   Stefan Grimme, W. Hujo, H. Kruse, P. Pracht,  : VdW corrections, initial TS optimization,
                  C. Bannwarth, S. Ehlert,         DFT functionals, gCP, sTDA/sTD-DF
                  L. Wittmann, M. Mueller
   Ed Valeev, F. Pavosevic, A. Kumar             : LibInt (2-el integral package), F12 methods
   Garnet Chan, S. Sharma, J. Yang, R. Olivares  : DMRG
   Ulf Ekstrom                                   : XCFun DFT Library
   Mihaly Kallay                                 : mrcc  (arbitrary order and MRCC methods)
   Frank Weinhold                                : gennbo (NPA and NBO analysis)
   Simon Mueller                                 : openCOSMO-RS
   Christopher J. Cramer and Donald G. Truhlar   : smd solvation model
   Lars Goerigk                                  : TD-DFT with DH, B97 family of functionals
   V. Asgeirsson, H. Jonsson                     : NEB implementation
   FAccTs GmbH                                   : IRC, NEB, NEB-TS, DLPNO-Multilevel, CI-OPT
                                                   MM, QMMM, 2- and 3-layer-ONIOM, Crystal-QMMM,
                                                   LR-CPCM, SF, NACMEs, symmetry and pop. for TD-DFT,
                                                   nearIR, NL-DFT gradient (VV10), updates on ESD,
                                                   ML-optimized integration grids, MBIS, APM,
                                                   GOAT, DOCKER, SOLVATOR, interface openCOSMO-RS
   S Lehtola, MJT Oliveira, MAL Marques          : LibXC Library
   Liviu Ungur et al                             : ANISO software


 Your calculation uses the libint2 library for the computation of 2-el integrals
 For citations please refer to: http://libint.valeyev.net

 Your ORCA version has been built with support for libXC version: 6.2.2
 For citations please refer to: https://libxc.gitlab.io

 This ORCA versions uses:
   CBLAS   interface :  Fast vector & matrix operations
   LAPACKE interface :  Fast linear algebra routines
   SCALAPACK package :  Parallel linear algebra routines
   Shared memory     :  Shared parallel matrices


NOTE: MaxCore=2000 MB was set to SCF,MP2,MDCI,CIPSI,MRCI and CIS
      => If you want to overwrite this, your respective input block should be placed after the MaxCore statement


***************************************
The coordinates will be read from file: dichloromethane_c000.xyz
***************************************


Warning: RI is on but no J-basis has been assigned. Assigning Def2/J (nothing to worry about!)
================================================================================

----- Orbital basis set information -----
Your calculation utilizes the basis: def2-TZVP
   F. Weigend and R. Ahlrichs, Phys. Chem. Chem. Phys. 7, 3297 (2005).

----- AuxJ basis set information -----
Your calculation utilizes the auxiliary basis: def2/J
   F. Weigend, Phys. Chem. Chem. Phys. 8, 1057 (2006).

================================================================================
                                        WARNINGS
                       Please study these warnings very carefully!
================================================================================


WARNING: Geometry Optimization
  ===> : Switching off AutoStart
         For restart on a previous wavefunction, please use MOREAD



***************************************
The coordinates will be read from file: geo_opt_tzvp.xyz
***************************************


Warning: RI is on but no J-basis has been assigned. Assigning Def2/J (nothing to worry about!)
================================================================================

----- Orbital basis set information -----
Your calculation utilizes the basis: def2-TZVPD
   F. Weigend and R. Ahlrichs, Phys. Chem. Chem. Phys. 7, 3297 (2005).
   D. Rappoport and F. Furche, J. Chem. Phys. 133, 134105 (2010)
   D. Rappoport, J. Chem. Phys. 155, 124102 (2021).

----- AuxJ basis set information -----
Your calculation utilizes the auxiliary basis: def2/J
   F. Weigend, Phys. Chem. Chem. Phys. 8, 1057 (2006).

================================================================================
                                        WARNINGS
                       Please study these warnings very carefully!
================================================================================


================================================================================
                                       INPUT FILE
================================================================================
NAME = input.dat
|  1> %MaxCore 2000
|  2> 
|  3> %base "geo_opt_tzvp"
|  4> 
|  5> %cpcm
|  6> radius[1]  1.3
|  7> radius[2]  1.601
|  8> radius[5]  2.048
|  9> radius[6]  2.0
| 10> radius[7]  1.83
| 11> radius[8]  1.72
| 12> radius[9]  1.72
| 13> radius[10]  1.771
| 14> radius[13]  2.152
| 15> radius[14]  2.2
| 16> radius[15]  2.106
| 17> radius[16]  2.16
| 18> radius[17]  2.05
| 19> radius[18]  2.184
| 20> radius[22]  2.261
| 21> radius[26]  2.195
| 22> radius[27]  2.153
| 23> radius[31]  2.172
| 24> radius[32]  2.7
| 25> radius[33]  2.148
| 26> radius[34]  2.2
| 27> radius[35]  2.16
| 28> radius[36]  2.354
| 29> radius[49]  2.245
| 30> radius[50]  2.55
| 31> radius[51]  2.402
| 32> radius[53]  2.32
| 33> radius[54]  2.524
| 34> radius[80]  1.978
| 35> radius[82]  2.36
| 36> radius[86]  2.573
| 37> cut_area 0.03571064825863687
| 38> end
| 39> 
| 40> ! OPT CPCM BP86 def2-TZVP
| 41> 
| 42> * xyzfile 0 1 dichloromethane_c000.xyz
| 43> 
| 44> $new_job
| 45> 
| 46> ! CPCM BP86 def2-TZVPD SP
| 47> 
| 48> %base "single_point_tzvpd"
| 49> 
| 50> * xyzfile 0 1 geo_opt_tzvp.xyz
| 51> 
| 52>                          ****END OF INPUT****
================================================================================


                 $$$$$$$$$$$$$$$$$$$$$$$$$$$$$$$$$$$$$$$$$$$$$$ 
                 $ THERE ARE  2 JOBS TO BE PROCESSED THIS RUN $
                 $$$$$$$$$$$$$$$$$$$$$$$$$$$$$$$$$$$$$$$$$$$$$$ 




                 $$$$$$$$$$$$$$$$  JOB NUMBER  1 $$$$$$$$$$$$$$


                       *****************************
                       * Geometry Optimization Run *
                       *****************************

Geometry optimization settings:
Update method            Update   .... BFGS
Choice of coordinates    CoordSys .... (2022) Redundant Internals
Initial Hessian          InHess   .... Almloef's Model
Max. no of cycles        MaxIter  .... 50

Convergence Tolerances:
Energy Change            TolE     ....  5.0000e-06 Eh
Max. Gradient            TolMAXG  ....  3.0000e-04 Eh/bohr
RMS Gradient             TolRMSG  ....  1.0000e-04 Eh/bohr
Max. Displacement        TolMAXD  ....  4.0000e-03 bohr
RMS Displacement         TolRMSD  ....  2.0000e-03 bohr
Strict Convergence                .... False

------------------------------------------------------------------------------
                        ORCA OPTIMIZATION COORDINATE SETUP
------------------------------------------------------------------------------

The optimization will be done in redundant internal coordinates (2022)
Making redundant internal coordinates   ...  (2022 redundants) done
Evaluating the initial hessian          ...  (Almloef) done
Evaluating the coordinates              ...  done
Calculating the B-matrix                .... done
Calculating the G-matrix                .... done
Diagonalizing the G-matrix              .... done
The first mode is                       ....    1
The number of degrees of freedom        ....    9

    -----------------------------------------------------------------
                    Redundant Internal Coordinates


    -----------------------------------------------------------------
         Definition                    Initial Value    Approx d2E/dq
    -----------------------------------------------------------------
      1. B(Cl  1,C   0)                  1.7991         0.311864   
      2. B(Cl  2,C   0)                  1.7992         0.311830   
      3. B(H   3,C   0)                  1.0908         0.359070   
      4. B(H   4,C   0)                  1.0908         0.359099   
      5. A(Cl  1,C   0,H   3)          107.8562         0.327772   
      6. A(Cl  2,C   0,H   3)          107.8689         0.327767   
      7. A(Cl  1,C   0,H   4)          107.8679         0.327777   
      8. A(Cl  2,C   0,H   4)          107.8594         0.327771   
      9. A(H   3,C   0,H   4)          113.2858         0.290582   
     10. A(Cl  1,C   0,Cl  2)          112.1838         0.371823   
    -----------------------------------------------------------------

Number of atoms                         .... 5
Number of degrees of freedom            .... 10


         *************************************************************
         *                GEOMETRY OPTIMIZATION CYCLE   1            *
         *************************************************************
---------------------------------
CARTESIAN COORDINATES (ANGSTROEM)
---------------------------------
  C     -0.001591   -0.161511    0.003957
  Cl     1.500850    0.826190   -0.059667
  Cl    -1.484334    0.857460    0.018525
  H     -0.031427   -0.783080   -0.891902
  H      0.016502   -0.739058    0.929087

----------------------------
CARTESIAN COORDINATES (A.U.)
----------------------------
  NO LB      ZA    FRAG     MASS         X           Y           Z
   0 C     6.0000    0    12.011   -0.003007   -0.305212    0.007477
   1 Cl   17.0000    0    35.453    2.836195    1.561274   -0.112755
   2 Cl   17.0000    0    35.453   -2.804984    1.620364    0.035008
   3 H     1.0000    0     1.008   -0.059388   -1.479808   -1.685450
   4 H     1.0000    0     1.008    0.031184   -1.396617    1.755720

--------------------------------
INTERNAL COORDINATES (ANGSTROEM)
--------------------------------
 C      0   0   0     0.000000000000     0.00000000     0.00000000
 Cl     1   0   0     1.799147667410     0.00000000     0.00000000
 Cl     1   2   0     1.799177388479   112.18384763     0.00000000
 H      1   2   3     1.090779654517   107.85623237   118.65266222
 H      1   2   3     1.090758039835   107.86790172   241.35155442

---------------------------
INTERNAL COORDINATES (A.U.)
---------------------------
 C      0   0   0     0.000000000000     0.00000000     0.00000000
 Cl     1   0   0     3.399896365889     0.00000000     0.00000000
 Cl     1   2   0     3.399952530568   112.18384763     0.00000000
 H      1   2   3     2.061274819490   107.85623237   118.65266222
 H      1   2   3     2.061233973662   107.86790172   241.35155442

---------------------
BASIS SET INFORMATION
---------------------
There are 3 groups of distinct atoms

 Group   1 Type C   : 11s6p2d1f contracted to 5s3p2d1f pattern {62111/411/11/1}
 Group   2 Type Cl  : 14s9p3d1f contracted to 5s5p2d1f pattern {73211/51111/21/1}
 Group   3 Type H   : 5s1p contracted to 3s1p pattern {311/1}

Atom   0C    basis set group =>   1
Atom   1Cl   basis set group =>   2
Atom   2Cl   basis set group =>   2
Atom   3H    basis set group =>   3
Atom   4H    basis set group =>   3
---------------------------------
AUXILIARY/J BASIS SET INFORMATION
---------------------------------
There are 3 groups of distinct atoms

 Group   1 Type C   : 12s5p4d2f1g contracted to 6s4p3d1f1g pattern {711111/2111/211/2/1}
 Group   2 Type Cl  : 14s5p5d2f1g contracted to 8s4p3d1f1g pattern {71111111/2111/311/2/1}
 Group   3 Type H   : 5s2p1d contracted to 3s1p1d pattern {311/2/1}

Atom   0C    basis set group =>   1
Atom   1Cl   basis set group =>   2
Atom   2Cl   basis set group =>   2
Atom   3H    basis set group =>   3
Atom   4H    basis set group =>   3
------------------------------------------------------------------------------
                             ORCA STARTUP CALCULATIONS
                           -- RI-GTO INTEGRALS CHOSEN --
------------------------------------------------------------------------------
------------------------------------------------------------------------------
                   ___                                                        
                  /   \      - P O W E R E D   B Y -                         
                 /     \                                                     
                 |  |  |   _    _      __       _____    __    __             
                 |  |  |  | |  | |    /  \     |  _  \  |  |  /  |          
                  \  \/   | |  | |   /    \    | | | |  |  | /  /          
                 / \  \   | |__| |  /  /\  \   | |_| |  |  |/  /          
                |  |  |   |  __  | /  /__\  \  |    /   |      \           
                |  |  |   | |  | | |   __   |  |    \   |  |\   \          
                \     /   | |  | | |  |  |  |  | |\  \  |  | \   \       
                 \___/    |_|  |_| |__|  |__|  |_| \__\ |__|  \__/        
                                                                              
                      - O R C A' S   B I G   F R I E N D -                    
                                      &                                       
                       - I N T E G R A L  F E E D E R -                       
                                                                              
 v1 FN, 2020, v2 2021, v3 2022-2024                                           
------------------------------------------------------------------------------


----------------------
SHARK INTEGRAL PACKAGE
----------------------

Number of atoms                             ...      5
Number of basis functions                   ...    117
Number of shells                            ...     45
Maximum angular momentum                    ...      3
Integral batch strategy                     ... SHARK/LIBINT Hybrid
RI-J (if used) integral strategy            ... SPLIT-RIJ (Revised 2003 algorithm where possible)
Printlevel                                  ...      1
Contraction scheme used                     ... SEGMENTED contraction
Prescreening option                         ... SCHWARTZ
   Thresh                                   ... 2.500e-11
   Tcut                                     ... 2.500e-12
   Tpresel                                  ... 2.500e-12 
Coulomb Range Separation                    ... NOT USED
Exchange Range Separation                   ... NOT USED
Multipole approximations                    ... NOT USED
Finite Nucleus Model                        ... NOT USED
CABS basis                                  ... NOT available
Auxiliary Coulomb fitting basis             ... AVAILABLE
   # of basis functions in Aux-J            ...    173
   # of shells in Aux-J                     ...     59
   Maximum angular momentum in Aux-J        ...      4
Auxiliary J/K fitting basis                 ... NOT available
Auxiliary Correlation fitting basis         ... NOT available
Auxiliary 'external' fitting basis          ... NOT available

Checking pre-screening integrals            ... done (  0.0 sec) Dimension = 45
Check shell pair data                       ... done (  0.0 sec)
Shell pair information
Shell pair cut-off parameter TPreSel        ...   2.5e-12
Total number of shell pairs                 ...      1035
Shell pairs after pre-screening             ...       994
Total number of primitive shell pairs       ...      3841
Primitive shell pairs kept                  ...      2944
          la=0 lb=0:    216 shell pairs
          la=1 lb=0:    295 shell pairs
          la=1 lb=1:    116 shell pairs
          la=2 lb=0:    124 shell pairs
          la=2 lb=1:     90 shell pairs
          la=2 lb=2:     21 shell pairs
          la=3 lb=0:     63 shell pairs
          la=3 lb=1:     45 shell pairs
          la=3 lb=2:     18 shell pairs
          la=3 lb=3:      6 shell pairs

Calculating one electron integrals          ... done (  0.0 sec)
Calculating RI/J V-Matrix + Cholesky decomp.... done (  0.0 sec)
Calculating Nuclear repulsion               ... done (  0.0 sec) ENN=    132.488004113947 Eh

Diagonalization of the overlap matrix:
Smallest eigenvalue                        ... 2.435e-03
Time for diagonalization                   ...    0.001 sec
Threshold for overlap eigenvalues          ... 1.000e-07
Number of eigenvalues below threshold      ... 0
Time for construction of square roots      ...    0.000 sec
Total time needed                          ...    0.001 sec

-------------------
DFT GRID GENERATION
-------------------

General Integration Accuracy     IntAcc      ... 4.388
Radial Grid Type                 RadialGrid  ... OptM3 with GC (2021)
Angular Grid (max. ang.)         AngularGrid ... 4 (Lebedev-302)
Angular grid pruning method      GridPruning ... 4 (adaptive)
Weight generation scheme         WeightScheme... mBecke (2022)
Basis function cutoff            BFCut       ... 1.0000e-11
Integration weight cutoff        WCut        ... 1.0000e-14
Partially contracted basis set               ... off
Rotationally invariant grid construction     ... off
Angular grids for H and He will be reduced by one unit

Total number of grid points                  ...    27364
Total number of batches                      ...      431
Average number of points per batch           ...       63
Average number of grid points per atom       ...     5473
Initializing property integral containers    ... done (  0.0 sec)

SHARK setup successfully completed in   0.1 seconds

Maximum memory used throughout the entire STARTUP-calculation: 15.2 MB
-------------------------------------------------------------------------------
                                 ORCA GUESS
                   Start orbitals & Density for SCF / CASSCF
-------------------------------------------------------------------------------

------------
SCF SETTINGS
------------
Hamiltonian:
 Density Functional     Method          .... DFT(GTOs)
 Exchange Functional    Exchange        .... B88
   X-Alpha parameter    XAlpha          ....  0.666667
   Becke's b parameter  XBeta           ....  0.004200
 Correlation Functional Correlation     .... P86
 LDA part of GGA corr.  LDAOpt          .... PW91-LDA
 Gradients option       PostSCFGGA      .... off
   NL short-range parameter             ....  4.400000
 RI-approximation to the Coulomb term is turned on
   Number of AuxJ basis functions       .... 173


General Settings:
 Integral files         IntName         .... geo_opt_tzvp
 Hartree-Fock type      HFTyp           .... RHF
 Total Charge           Charge          ....    0
 Multiplicity           Mult            ....    1
 Number of Electrons    NEL             ....   42
 Basis Dimension        Dim             ....  117
 Nuclear Repulsion      ENuc            ....    132.4880041139 Eh

Convergence Acceleration:
 AO-DIIS                CNVDIIS         .... on
   Start iteration      DIISMaxIt       ....    12
   Startup error        DIISStart       ....  0.200000
   # of expansion vecs  DIISMaxEq       ....     5
   Bias factor          DIISBfac        ....   1.050
   Max. coefficient     DIISMaxC        ....  10.000
 MO-DIIS                CNVKDIIS        .... off
 Trust-Rad. Augm. Hess. CNVTRAH         .... auto
   Auto Start mean grad. ratio tolernc. ....  1.125000
   Auto Start start iteration           ....    50
   Auto Start num. interpolation iter.  ....    10
   Max. Number of Micro iterations      ....    24
   Max. Number of Macro iterations      .... Maxiter - #DIIS iter
   Number of Davidson start vectors     ....     2
   Converg. threshold    (grad. norm)   ....   1.000e-05
   Grad. Scal. Fac. for Micro threshold ....   0.100
   Minimum threshold for Micro iter.    ....   1.000e-02
   NR start threshold (gradient norm)   ....   1.000e-04
   Initial trust radius                 ....   0.400
   Minimum AH scaling param. (alpha)    ....   1.000
   Maximum AH scaling param. (alpha)    .... 1000.000
   Quad. conv. algorithm                .... NR
   White noise on init. David. guess    .... on
   Maximum white noise                  ....   0.010
   Pseudo random numbers                .... off
   Inactive MOs                         .... canonical
   Orbital update algorithm             .... Taylor
   Preconditioner                       .... Diag
   Full preconditioner red. dimension   ....   250
 SOSCF                  CNVSOSCF        .... on
   Start iteration      SOSCFMaxIt      ....   150
   Startup grad/error   SOSCFStart      ....  0.003300
   Hessian update       SOSCFHessUp     .... L-BFGS
 Level Shifting         CNVShift        .... on
   Level shift para.    LevelShift      ....    0.2500
   Turn off err/grad.   ShiftErr        ....    0.0010
 Zerner damping         CNVZerner       .... off
 Static damping         CNVDamp         .... on
   Fraction old density DampFac         ....    0.7000
   Max. Damping (<1)    DampMax         ....    0.9800
   Min. Damping (>=0)   DampMin         ....    0.0000
   Turn off err/grad.   DampErr         ....    0.1000

SCF Procedure:
 Maximum # iterations   MaxIter         ....   125
 SCF integral mode      SCFMode         .... Direct
   Integral package                     .... SHARK and LIBINT hybrid scheme
 Reset frequency        DirectResetFreq ....    20
 Integral Threshold     Thresh          ....  2.500e-11 Eh
 Primitive CutOff       TCut            ....  2.500e-12 Eh

Convergence Tolerance:
 Convergence Check Mode ConvCheckMode   .... Total+1el-Energy
 Convergence forced     ConvForced      .... 0
 Energy Change          TolE            ....  1.000e-08 Eh
 1-El. energy change                    ....  1.000e-05 Eh
 Orbital Gradient       TolG            ....  1.000e-05
 Orbital Rotation angle TolX            ....  1.000e-05
 DIIS Error             TolErr          ....  5.000e-07

------------------------------
INITIAL GUESS: MODEL POTENTIAL
------------------------------
Loading Hartree-Fock densities                     ... done
Calculating cut-offs                               ... done
Initializing the effective Hamiltonian             ... done
Setting up the integral package (SHARK)            ... done
Starting the Coulomb interaction                   ... done (   0.0 sec)
Making the grid                                    ... done (   0.0 sec)
Mapping shells                                     ... done
Starting the XC term evaluation                    ... done (   0.0 sec)
  promolecular density results
     # of electrons  =     41.999206356
     EX              =    -60.764748214
     EC              =     -1.793339270
     EX+EC           =    -62.558087484
Transforming the Hamiltonian                       ... done (   0.0 sec)
Diagonalizing the Hamiltonian                      ... done (   0.0 sec)
Back transforming the eigenvectors                 ... done (   0.0 sec)
Now organizing SCF variables                       ... done
                      ------------------
                      INITIAL GUESS DONE (   0.1 sec)
                      ------------------
             **** ENERGY FILE WAS UPDATED (geo_opt_tzvp.en.tmp) ****
Finished Guess after   0.1 sec
Maximum memory used throughout the entire GUESS-calculation: 10.1 MB

-------------------------------------------------------------------------------------------
                                      ORCA LEAN-SCF
                              memory conserving SCF solver
-------------------------------------------------------------------------------------------

--------------------
CPCM SOLVATION MODEL
--------------------
CPCM parameters:
  Epsilon                                         ...     INFINITY
  Refrac                                          ...       1.3300
  Rsolv                                           ...       1.3000
  Surface type                                    ... GAUSSIAN VDW
  Discretization scheme                           ... Constant charge density
    Threshold for H atoms                         ...       5.0000 (charges/Ang^2)
    Threshold for non-H atoms                     ...       5.0000 (charges/Ang^2)
  Epsilon function type                           ...         CPCM
Solvent:                                          ... CONDUCTOR
Radii:
  Scheme                                          ... Element-dependent radii
  Radius for C  used is    3.7795 Bohr (=   2.0000 Ang.)
  Radius for Cl used is    3.8739 Bohr (=   2.0500 Ang.)
  Radius for H  used is    2.4566 Bohr (=   1.3000 Ang.)
Calculating surface                               ...        done! (  0.0s)
Cavity surface points                             ...          622
Cavity Volume                                     ...     547.7352
Cavity Surface-area                               ...     357.4693
Calculating surface distance matrix               ...        done! (  0.0s)
Performing Cholesky decomposition & store         ...        done! (  0.0s)
Overall time for CPCM initialization              ...                 0.0s

----------------------------------------D-I-I-S--------------------------------------------
Iteration    Energy (Eh)           Delta-E    RMSDP     MaxDP     DIISErr   Damp  Time(sec)
-------------------------------------------------------------------------------------------
               ***  Starting incremental Fock matrix formation  ***
    1    -959.8333153223078398     0.00e+00  9.21e-04  2.51e-02  4.65e-02  0.700   0.1
    2    -959.8381357116062418    -4.82e-03  7.33e-04  1.71e-02  3.07e-02  0.700   0.1
                               ***Turning on AO-DIIS***
    3    -959.8405296741628945    -2.39e-03  3.95e-04  7.82e-03  1.87e-02  0.700   0.1
    4    -959.8419633870233838    -1.43e-03  7.70e-04  1.45e-02  1.16e-02  0.000   0.1
                              *** Initializing SOSCF ***
---------------------------------------S-O-S-C-F--------------------------------------
Iteration    Energy (Eh)           Delta-E    RMSDP     MaxDP     MaxGrad    Time(sec)
--------------------------------------------------------------------------------------
    5    -959.8449806133834272    -3.02e-03  5.54e-05  8.17e-04  1.77e-03     0.1
               *** Restarting incremental Fock matrix formation ***
    6    -959.8449926752151669    -1.21e-05  3.25e-05  4.66e-04  2.01e-04     0.1
    7    -959.8449926593642658     1.59e-08  1.26e-05  2.09e-04  2.83e-04     0.1
    8    -959.8449932599945669    -6.01e-07  1.04e-05  1.90e-04  6.92e-05     0.1
    9    -959.8449933065645610    -4.66e-08  4.52e-06  1.28e-04  3.62e-05     0.1
   10    -959.8449933367168114    -3.02e-08  1.10e-06  2.10e-05  7.27e-06     0.1
   11    -959.8449933371024372    -3.86e-10  4.20e-07  5.43e-06  5.77e-06     0.1
                 **** Energy Check signals convergence ****

               *****************************************************
               *                     SUCCESS                       *
               *           SCF CONVERGED AFTER  11 CYCLES          *
               *****************************************************

             **** ENERGY FILE WAS UPDATED (geo_opt_tzvp.en.tmp) ****

----------------
TOTAL SCF ENERGY
----------------

Total Energy       :       -959.84499333710244 Eh          -26118.71012 eV

Components:
Nuclear Repulsion  :        132.48800411394711 Eh            3605.18188 eV
Electronic Energy  :      -1092.32643682616094 Eh          -29723.71347 eV
One Electron Energy:      -1587.13364074542869 Eh          -43188.10201 eV
Two Electron Energy:        494.80720391926781 Eh           13464.38853 eV
CPCM Dielectric    :         -0.00656062488861 Eh              -0.17852 eV

Virial components:
Potential Energy   :      -1917.92784773488393 Eh          -52189.47000 eV
Kinetic Energy     :        958.08285439778149 Eh           26070.75988 eV
Virial Ratio       :          2.00183923439526

DFT components:
N(Alpha)           :       20.999998034092 electrons
N(Beta)            :       20.999998034092 electrons
N(Total)           :       41.999996068183 electrons
E(X)               :      -60.947349519072 Eh       
E(C)               :       -1.792638881721 Eh       
E(XC)              :      -62.739988400793 Eh       

CPCM Solvation Model Properties:
Surface-charge          :         -0.01868810727583
Corrected charge        :          0.00000000000000
Outlying charge corr.   :          0.00003316513619 Eh               0.00090 eV
Free-energy (cav+disp)  :  This term is not implemented in the current solvation scheme

---------------
SCF CONVERGENCE
---------------

  Last Energy change         ...    3.8563e-10  Tolerance :   1.0000e-08
  Last MAX-Density change    ...    5.4307e-06  Tolerance :   1.0000e-07
  Last RMS-Density change    ...    4.2026e-07  Tolerance :   5.0000e-09
  Last DIIS Error            ...    1.7718e-03  Tolerance :   5.0000e-07
  Last Orbital Gradient      ...    5.7682e-06  Tolerance :   1.0000e-05
  Last Orbital Rotation      ...    6.5857e-06  Tolerance :   1.0000e-05


----------------
ORBITAL ENERGIES
----------------

  NO   OCC          E(Eh)            E(eV) 
   0   2.0000    -100.724789     -2740.8609 
   1   2.0000    -100.724778     -2740.8605 
   2   2.0000     -10.010080      -272.3881 
   3   2.0000      -9.190109      -250.0756 
   4   2.0000      -9.190094      -250.0752 
   5   2.0000      -7.013154      -190.8376 
   6   2.0000      -7.013142      -190.8373 
   7   2.0000      -7.002933      -190.5595 
   8   2.0000      -7.002922      -190.5592 
   9   2.0000      -7.002330      -190.5431 
  10   2.0000      -7.002320      -190.5428 
  11   2.0000      -0.821971       -22.3670 
  12   2.0000      -0.755537       -20.5592 
  13   2.0000      -0.600962       -16.3530 
  14   2.0000      -0.438689       -11.9373 
  15   2.0000      -0.413645       -11.2559 
  16   2.0000      -0.405763       -11.0414 
  17   2.0000      -0.295787        -8.0488 
  18   2.0000      -0.291449        -7.9307 
  19   2.0000      -0.277537        -7.5522 
  20   2.0000      -0.269749        -7.3402 
  21   0.0000      -0.050431        -1.3723 
  22   0.0000      -0.013533        -0.3682 
  23   0.0000       0.048685         1.3248 
  24   0.0000       0.080930         2.2022 
  25   0.0000       0.153982         4.1901 
  26   0.0000       0.154814         4.2127 
  27   0.0000       0.214607         5.8398 
  28   0.0000       0.215341         5.8597 
  29   0.0000       0.261824         7.1246 
  30   0.0000       0.270440         7.3590 
  31   0.0000       0.295784         8.0487 
*Only the first 10 virtual orbitals were printed.

                    ********************************
                    * MULLIKEN POPULATION ANALYSIS *
                    ********************************

-----------------------
MULLIKEN ATOMIC CHARGES
-----------------------
   0 C :   -0.128641
   1 Cl:   -0.136433
   2 Cl:   -0.136462
   3 H :    0.200744
   4 H :    0.200791
Sum of atomic charges:   -0.0000000

--------------------------------
MULLIKEN REDUCED ORBITAL CHARGES
--------------------------------
  0 C s       :     3.270415  s :     3.270415
      pz      :     1.134264  p :     2.734243
      px      :     0.713992
      py      :     0.885987
      dz2     :     0.010774  d :     0.117824
      dxz     :     0.026356
      dyz     :     0.019801
      dx2y2   :     0.033915
      dxy     :     0.026977
      f0      :     0.000662  f :     0.006159
      f+1     :     0.000417
      f-1     :     0.001145
      f+2     :    -0.000003
      f-2     :     0.000899
      f+3     :     0.001716
      f-3     :     0.001322

  1 Cls       :     5.918576  s :     5.918576
      pz      :     3.964643  p :    11.159177
      px      :     3.451568
      py      :     3.742966
      dz2     :     0.007126  d :     0.053823
      dxz     :     0.008666
      dyz     :     0.006115
      dx2y2   :     0.012655
      dxy     :     0.019260
      f0      :     0.000436  f :     0.004857
      f+1     :     0.000759
      f-1     :     0.000326
      f+2     :     0.000076
      f-2     :     0.000705
      f+3     :     0.000910
      f-3     :     0.001645

  2 Cls       :     5.918585  s :     5.918585
      pz      :     3.965426  p :    11.159200
      px      :     3.463663
      py      :     3.730111
      dz2     :     0.007119  d :     0.053820
      dxz     :     0.008359
      dyz     :     0.006383
      dx2y2   :     0.012418
      dxy     :     0.019542
      f0      :     0.000435  f :     0.004856
      f+1     :     0.000744
      f-1     :     0.000343
      f+2     :     0.000059
      f-2     :     0.000713
      f+3     :     0.000931
      f-3     :     0.001631

  3 H s       :     0.778192  s :     0.778192
      pz      :     0.010294  p :     0.021064
      px      :     0.003637
      py      :     0.007133

  4 H s       :     0.778145  s :     0.778145
      pz      :     0.010724  p :     0.021064
      px      :     0.003632
      py      :     0.006708



                     *******************************
                     * LOEWDIN POPULATION ANALYSIS *
                     *******************************

----------------------
LOEWDIN ATOMIC CHARGES
----------------------
   0 C :   -0.727970
   1 Cl:    0.240668
   2 Cl:    0.240621
   3 H :    0.123348
   4 H :    0.123334

-------------------------------
LOEWDIN REDUCED ORBITAL CHARGES
-------------------------------
  0 C s       :     2.997211  s :     2.997211
      pz      :     1.166166  p :     3.174766
      px      :     0.973514
      py      :     1.035087
      dz2     :     0.066924  d :     0.513179
      dxz     :     0.077293
      dyz     :     0.093028
      dx2y2   :     0.127516
      dxy     :     0.148419
      f0      :     0.004380  f :     0.042813
      f+1     :     0.005183
      f-1     :     0.003647
      f+2     :     0.003775
      f-2     :     0.005135
      f+3     :     0.010525
      f-3     :     0.010169

  1 Cls       :     5.620435  s :     5.620435
      pz      :     3.899186  p :    11.037776
      px      :     3.439533
      py      :     3.699057
      dz2     :     0.012543  d :     0.090804
      dxz     :     0.015515
      dyz     :     0.009334
      dx2y2   :     0.020382
      dxy     :     0.033030
      f0      :     0.001065  f :     0.010317
      f+1     :     0.001443
      f-1     :     0.000674
      f+2     :     0.000230
      f-2     :     0.001651
      f+3     :     0.002092
      f-3     :     0.003160

  2 Cls       :     5.620456  s :     5.620456
      pz      :     3.899883  p :    11.037808
      px      :     3.450194
      py      :     3.687731
      dz2     :     0.012534  d :     0.090799
      dxz     :     0.014988
      dyz     :     0.009785
      dx2y2   :     0.019987
      dxy     :     0.033505
      f0      :     0.001066  f :     0.010316
      f+1     :     0.001409
      f-1     :     0.000708
      f+2     :     0.000178
      f-2     :     0.001689
      f+3     :     0.002134
      f-3     :     0.003132

  3 H s       :     0.809714  s :     0.809714
      pz      :     0.034523  p :     0.066938
      px      :     0.009737
      py      :     0.022678

  4 H s       :     0.809723  s :     0.809723
      pz      :     0.036015  p :     0.066944
      px      :     0.009723
      py      :     0.021206



                      *****************************
                      * MAYER POPULATION ANALYSIS *
                      *****************************

  NA   - Mulliken gross atomic population
  ZA   - Total nuclear charge
  QA   - Mulliken gross atomic charge
  VA   - Mayer's total valence
  BVA  - Mayer's bonded valence
  FA   - Mayer's free valence

  ATOM       NA         ZA         QA         VA         BVA        FA
  0 C      6.1286     6.0000    -0.1286     4.0457     4.0457    -0.0000
  1 Cl    17.1364    17.0000    -0.1364     1.1459     1.1459     0.0000
  2 Cl    17.1365    17.0000    -0.1365     1.1459     1.1459    -0.0000
  3 H      0.7993     1.0000     0.2007     0.9479     0.9479     0.0000
  4 H      0.7992     1.0000     0.2008     0.9478     0.9478    -0.0000

  Mayer bond orders larger than 0.100000
B(  0-C ,  1-Cl) :   1.0844 B(  0-C ,  2-Cl) :   1.0844 B(  0-C ,  3-H ) :   0.9385 
B(  0-C ,  4-H ) :   0.9384 

-------
TIMINGS
-------

Total SCF time: 0 days 0 hours 0 min 1 sec 

Total time                  ....       1.519 sec
Sum of individual times     ....       1.511 sec  ( 99.5%)

SCF preparation             ....       0.018 sec  (  1.2%)
Fock matrix formation       ....       1.467 sec  ( 96.6%)
  Startup                   ....       0.002 sec  (  0.1% of F)
  Split-RI-J                ....       0.199 sec  ( 13.5% of F)
  XC integration            ....       0.952 sec  ( 64.9% of F)
    Basis function eval.    ....       0.353 sec  ( 37.1% of XC)
    Density eval.           ....       0.167 sec  ( 17.5% of XC)
    XC-Functional eval.     ....       0.048 sec  (  5.1% of XC)
    XC-Potential eval.      ....       0.316 sec  ( 33.2% of XC)
  CPCM terms                ....       0.293 sec  ( 20.0% of F)
Diagonalization             ....       0.000 sec  (  0.0%)
Density matrix formation    ....       0.004 sec  (  0.3%)
Total Energy calculation    ....       0.002 sec  (  0.1%)
Population analysis         ....       0.002 sec  (  0.1%)
Orbital Transformation      ....       0.002 sec  (  0.1%)
Orbital Orthonormalization  ....       0.000 sec  (  0.0%)
DIIS solution               ....       0.010 sec  (  0.6%)
SOSCF solution              ....       0.006 sec  (  0.4%)
Finished LeanSCF after   1.5 sec

Maximum memory used throughout the entire LEANSCF-calculation: 10.2 MB

-------------------------   --------------------
FINAL SINGLE POINT ENERGY      -959.844993337102
-------------------------   --------------------

------------------------------------------------------------------------------
                         ORCA SCF GRADIENT CALCULATION
------------------------------------------------------------------------------

Nuc. rep. gradient        (SHARK) ... done (  0.0 sec)
HCore & Overlap gradient  (SHARK) ... done (  0.0 sec)
Split-RIJ-J gradient      (SHARK) ... done (  0.1 sec)
XC gradient                       ... done (  0.4 sec)
CPCM gradient                     ... done (  0.1 sec)

------------------
CARTESIAN GRADIENT
------------------

   1   C   :   -0.000030616   -0.003378319    0.000068535
   2   Cl  :    0.002219781    0.001403713   -0.000088218
   3   Cl  :   -0.002183691    0.001458394    0.000015358
   4   H   :    0.000000837    0.000259688    0.000151808
   5   H   :   -0.000006311    0.000256524   -0.000147483

Difference to translation invariance:
           :    0.0000000000    0.0000000000   -0.0000000000

Difference to rotation invariance:
           :   -0.0000326475   -0.0000323549   -0.0000510603

Norm of the Cartesian gradient     ...    0.0050396456
RMS gradient                       ...    0.0013012309
MAX gradient                       ...    0.0033783187

-------
TIMINGS
-------

Total SCF gradient time     ....        0.667 sec

Densities                   ....       0.000 sec  (  0.0%)
One electron gradient       ....       0.011 sec  (  1.6%)
RI-J Coulomb gradient       ....       0.134 sec  ( 20.1%)
XC gradient                 ....       0.400 sec  ( 60.0%)
CPCM gradient               ....       0.062 sec  (  9.4%)
   A-Matrix (El+Nuc)        ....       0.005 sec  (  0.7%)
   Potential                ....       0.058 sec  (  8.6%)

Maximum memory used throughout the entire SCFGRAD-calculation: 13.5 MB
------------------------------------------------------------------------------
                         ORCA GEOMETRY RELAXATION STEP
------------------------------------------------------------------------------

Reading the OPT-File                    .... done
Getting information on internals        .... done
Copying old internal coords+grads       .... done
Making the new internal coordinates     .... (2022 redundants) done
Validating the new internal coordinates .... (2022 redundants) done
Calculating the B-matrix                .... done
Calculating the G,G- and P matrices     .... done
Transforming gradient to internals      .... done
Projecting the internal gradient        .... done
Number of atoms                         ....   5
Number of internal coordinates          ....  10
Current Energy                          ....  -959.844993337 Eh
Current gradient norm                   ....     0.005039646 Eh/bohr
Maximum allowed component of the step   ....  0.300
Current trust radius                    ....  0.300
Evaluating the initial hessian          ....  (Almloef) done
Projecting the Hessian                  .... done
Forming the augmented Hessian           .... done
Diagonalizing the augmented Hessian     .... done
Last element of RFO vector              ....  0.999928174
Lowest eigenvalues of augmented Hessian:
 -0.000044855  0.297264725  0.311841364  0.311897216  0.327767962
Length of the computed step             ....  0.011986124
The final length of the internal step   ....  0.011986124
Converting the step to Cartesian space:
 Initial RMS(Int)=    0.0037903451
Transforming coordinates:
 Iter   0:  RMS(Cart)=    0.0028337210 RMS(Int)=    0.0037903424
done
Storing new coordinates                 .... done

                                .--------------------.
          ----------------------|Geometry convergence|-------------------------
          Item                value                   Tolerance       Converged
          ---------------------------------------------------------------------
          RMS gradient        0.0011835301            0.0001000000      NO
          MAX gradient        0.0026279695            0.0003000000      NO
          RMS step            0.0037903451            0.0020000000      NO
          MAX step            0.0084254353            0.0040000000      NO
          ........................................................
          Max(Bonds)      0.0045      Max(Angles)    0.04
          Max(Dihed)        0.00      Max(Improp)    0.00
          ---------------------------------------------------------------------

The optimization has not yet converged - more geometry cycles are needed


    ---------------------------------------------------------------------------
                         Redundant Internal Coordinates
                            (Angstroem and degrees)

        Definition                    Value    dE/dq     Step     New-Value
    ----------------------------------------------------------------------------
     1. B(Cl  1,C   0)                1.7991  0.002628 -0.0045    1.7947   
     2. B(Cl  2,C   0)                1.7992  0.002625 -0.0045    1.7947   
     3. B(H   3,C   0)                1.0908 -0.000272  0.0004    1.0912   
     4. B(H   4,C   0)                1.0908 -0.000262  0.0004    1.0911   
     5. A(Cl  1,C   0,H   3)          107.86 -0.000058    0.01    107.87   
     6. A(Cl  2,C   0,H   3)          107.87 -0.000071    0.01    107.88   
     7. A(Cl  1,C   0,H   4)          107.87 -0.000072    0.01    107.88   
     8. A(Cl  2,C   0,H   4)          107.86 -0.000071    0.01    107.87   
     9. A(H   3,C   0,H   4)          113.29  0.000208   -0.04    113.25   
    10. A(Cl  1,C   0,Cl  2)          112.18  0.000072   -0.01    112.17   
    ----------------------------------------------------------------------------

Geometry step timings:
Preparation and reading OPT file:      0.000 s (24.538 %)
Internal coordinates            :      0.000 s ( 3.576 %)
B/P matrices and projection     :      0.000 s ( 9.001 %)
Hessian update/contruction      :      0.000 s (32.306 %)
Making the step                 :      0.000 s ( 5.302 %)
Converting the step to Cartesian:      0.000 s ( 1.973 %)
Storing new data                :      0.000 s ( 6.042 %)
Checking convergence            :      0.000 s ( 0.123 %)
Final printing                  :      0.000 s (17.016 %)
Total time                      :      0.001 s

Time for energy+gradient        :      2.539 s
Time for complete geometry iter :      2.594 s

         *************************************************************
         *                GEOMETRY OPTIMIZATION CYCLE   2            *
         *************************************************************
---------------------------------
CARTESIAN COORDINATES (ANGSTROEM)
---------------------------------
  C     -0.001584   -0.160358    0.003939
  Cl     1.497044    0.825032   -0.059548
  Cl    -1.480558    0.856232    0.018457
  H     -0.031409   -0.782464   -0.892035
  H      0.016507   -0.738443    0.929188

----------------------------
CARTESIAN COORDINATES (A.U.)
----------------------------
  NO LB      ZA    FRAG     MASS         X           Y           Z
   0 C     6.0000    0    12.011   -0.002993   -0.303033    0.007444
   1 Cl   17.0000    0    35.453    2.829002    1.559085   -0.112530
   2 Cl   17.0000    0    35.453   -2.797849    1.618044    0.034879
   3 H     1.0000    0     1.008   -0.059354   -1.478642   -1.685703
   4 H     1.0000    0     1.008    0.031194   -1.395454    1.755910

--------------------------------
INTERNAL COORDINATES (ANGSTROEM)
--------------------------------
 C      0   0   0     0.000000000000     0.00000000     0.00000000
 Cl     1   0   0     1.794689119085     0.00000000     0.00000000
 Cl     1   2   0     1.794723068191   112.17313347     0.00000000
 H      1   2   3     1.091180705488   107.86694384   118.66907801
 H      1   2   3     1.091143401457   107.88106061   241.33342283

---------------------------
INTERNAL COORDINATES (A.U.)
---------------------------
 C      0   0   0     0.000000000000     0.00000000     0.00000000
 Cl     1   0   0     3.391470930600     0.00000000     0.00000000
 Cl     1   2   0     3.391535085113   112.17313347     0.00000000
 H      1   2   3     2.062032695992   107.86694384   118.66907801
 H      1   2   3     2.061962201588   107.88106061   241.33342283

------------------------------------------------------------------------------
                   ___                                                        
                  /   \      - P O W E R E D   B Y -                         
                 /     \                                                     
                 |  |  |   _    _      __       _____    __    __             
                 |  |  |  | |  | |    /  \     |  _  \  |  |  /  |          
                  \  \/   | |  | |   /    \    | | | |  |  | /  /          
                 / \  \   | |__| |  /  /\  \   | |_| |  |  |/  /          
                |  |  |   |  __  | /  /__\  \  |    /   |      \           
                |  |  |   | |  | | |   __   |  |    \   |  |\   \          
                \     /   | |  | | |  |  |  |  | |\  \  |  | \   \       
                 \___/    |_|  |_| |__|  |__|  |_| \__\ |__|  \__/        
                                                                              
                      - O R C A' S   B I G   F R I E N D -                    
                                      &                                       
                       - I N T E G R A L  F E E D E R -                       
                                                                              
 v1 FN, 2020, v2 2021, v3 2022-2024                                           
------------------------------------------------------------------------------


----------------------
SHARK INTEGRAL PACKAGE
----------------------

Number of atoms                             ...      5
Number of basis functions                   ...    117
Number of shells                            ...     45
Maximum angular momentum                    ...      3
Integral batch strategy                     ... SHARK/LIBINT Hybrid
RI-J (if used) integral strategy            ... SPLIT-RIJ (Revised 2003 algorithm where possible)
Printlevel                                  ...      1
Contraction scheme used                     ... SEGMENTED contraction
Prescreening option                         ... SCHWARTZ
   Thresh                                   ... 2.500e-11
   Tcut                                     ... 2.500e-12
   Tpresel                                  ... 2.500e-12 
Coulomb Range Separation                    ... NOT USED
Exchange Range Separation                   ... NOT USED
Multipole approximations                    ... NOT USED
Finite Nucleus Model                        ... NOT USED
CABS basis                                  ... NOT available
Auxiliary Coulomb fitting basis             ... AVAILABLE
   # of basis functions in Aux-J            ...    173
   # of shells in Aux-J                     ...     59
   Maximum angular momentum in Aux-J        ...      4
Auxiliary J/K fitting basis                 ... NOT available
Auxiliary Correlation fitting basis         ... NOT available
Auxiliary 'external' fitting basis          ... NOT available

Checking pre-screening integrals            ... done (  0.0 sec) Dimension = 45
Check shell pair data                       ... done (  0.0 sec)
Shell pair information
Shell pair cut-off parameter TPreSel        ...   2.5e-12
Total number of shell pairs                 ...      1035
Shell pairs after pre-screening             ...       996
Total number of primitive shell pairs       ...      3841
Primitive shell pairs kept                  ...      2948
          la=0 lb=0:    216 shell pairs
          la=1 lb=0:    297 shell pairs
          la=1 lb=1:    116 shell pairs
          la=2 lb=0:    124 shell pairs
          la=2 lb=1:     90 shell pairs
          la=2 lb=2:     21 shell pairs
          la=3 lb=0:     63 shell pairs
          la=3 lb=1:     45 shell pairs
          la=3 lb=2:     18 shell pairs
          la=3 lb=3:      6 shell pairs

Calculating one electron integrals          ... done (  0.0 sec)
Calculating RI/J V-Matrix + Cholesky decomp.... done (  0.0 sec)
Calculating Nuclear repulsion               ... done (  0.0 sec) ENN=    132.788049710395 Eh

Diagonalization of the overlap matrix:
Smallest eigenvalue                        ... 2.435e-03
Time for diagonalization                   ...    0.001 sec
Threshold for overlap eigenvalues          ... 1.000e-07
Number of eigenvalues below threshold      ... 0
Time for construction of square roots      ...    0.000 sec
Total time needed                          ...    0.001 sec

-------------------
DFT GRID GENERATION
-------------------

General Integration Accuracy     IntAcc      ... 4.388
Radial Grid Type                 RadialGrid  ... OptM3 with GC (2021)
Angular Grid (max. ang.)         AngularGrid ... 4 (Lebedev-302)
Angular grid pruning method      GridPruning ... 4 (adaptive)
Weight generation scheme         WeightScheme... mBecke (2022)
Basis function cutoff            BFCut       ... 1.0000e-11
Integration weight cutoff        WCut        ... 1.0000e-14
Partially contracted basis set               ... off
Rotationally invariant grid construction     ... off
Angular grids for H and He will be reduced by one unit

Total number of grid points                  ...    27363
Total number of batches                      ...      431
Average number of points per batch           ...       63
Average number of grid points per atom       ...     5473
Initializing property integral containers    ... done (  0.0 sec)

SHARK setup successfully completed in   0.1 seconds

Maximum memory used throughout the entire STARTUP-calculation: 15.3 MB
Occupation numbers will be reassigned to an Aufbau configuration
             **** ENERGY FILE WAS UPDATED (geo_opt_tzvp.en.tmp) ****
Finished Guess after   0.0 sec
Maximum memory used throughout the entire GUESS-calculation: 10.2 MB
--------------------
CPCM SOLVATION MODEL
--------------------
CPCM parameters:
  Epsilon                                         ...     INFINITY
  Refrac                                          ...       1.3300
  Rsolv                                           ...       1.3000
  Surface type                                    ... GAUSSIAN VDW
  Discretization scheme                           ... Constant charge density
    Threshold for H atoms                         ...       5.0000 (charges/Ang^2)
    Threshold for non-H atoms                     ...       5.0000 (charges/Ang^2)
  Epsilon function type                           ...         CPCM
Solvent:                                          ... CONDUCTOR
Radii:
  Scheme                                          ... Element-dependent radii
  Radius for C  used is    3.7795 Bohr (=   2.0000 Ang.)
  Radius for Cl used is    3.8739 Bohr (=   2.0500 Ang.)
  Radius for H  used is    2.4566 Bohr (=   1.3000 Ang.)
Calculating surface                               ...        done! (  0.0s)
Cavity surface points                             ...          621
Cavity Volume                                     ...     547.1772
Cavity Surface-area                               ...     357.0933
Calculating surface distance matrix               ...        done! (  0.0s)
Performing Cholesky decomposition & store         ...        done! (  0.0s)
Overall time for CPCM initialization              ...                 0.0s

----------------------------------------D-I-I-S--------------------------------------------
Iteration    Energy (Eh)           Delta-E    RMSDP     MaxDP     DIISErr   Damp  Time(sec)
-------------------------------------------------------------------------------------------
               ***  Starting incremental Fock matrix formation  ***
                              *** Initializing SOSCF ***
---------------------------------------S-O-S-C-F--------------------------------------
Iteration    Energy (Eh)           Delta-E    RMSDP     MaxDP     MaxGrad    Time(sec)
--------------------------------------------------------------------------------------
    1    -959.8450153532949116     0.00e+00  4.23e-05  6.97e-04  1.21e-04     0.1
               *** Restarting incremental Fock matrix formation ***
    2    -959.8450224588018500    -7.11e-06  3.03e-05  5.35e-04  3.09e-04     0.2
    3    -959.8450216221274331     8.37e-07  1.52e-05  2.94e-04  4.51e-04     0.1
    4    -959.8450233877363189    -1.77e-06  6.10e-06  1.47e-04  3.49e-05     0.1
    5    -959.8450233966837004    -8.95e-09  2.76e-06  8.19e-05  2.72e-05     0.1
                 **** Energy Check signals convergence ****

               *****************************************************
               *                     SUCCESS                       *
               *           SCF CONVERGED AFTER   5 CYCLES          *
               *****************************************************

             **** ENERGY FILE WAS UPDATED (geo_opt_tzvp.en.tmp) ****

----------------
TOTAL SCF ENERGY
----------------

Total Energy       :       -959.84502339668370 Eh          -26118.71094 eV

Components:
Nuclear Repulsion  :        132.78804971039494 Eh            3613.34653 eV
Electronic Energy  :      -1092.62655382836147 Eh          -29731.88007 eV
One Electron Energy:      -1587.73298996013409 Eh          -43204.41113 eV
Two Electron Energy:        495.10643613177251 Eh           13472.53106 eV
CPCM Dielectric    :         -0.00651927871710 Eh              -0.17740 eV

Virial components:
Potential Energy   :      -1917.93934992222648 Eh          -52189.78299 eV
Kinetic Energy     :        958.09432652554278 Eh           26071.07205 eV
Virial Ratio       :          2.00182726984460

DFT components:
N(Alpha)           :       20.999998308453 electrons
N(Beta)            :       20.999998308453 electrons
N(Total)           :       41.999996616907 electrons
E(X)               :      -60.950138367757 Eh       
E(C)               :       -1.792999618276 Eh       
E(XC)              :      -62.743137986034 Eh       

CPCM Solvation Model Properties:
Surface-charge          :         -0.01868271196579
Corrected charge        :         -0.00000000000000
Outlying charge corr.   :          0.00003316392332 Eh               0.00090 eV
Free-energy (cav+disp)  :  This term is not implemented in the current solvation scheme

---------------
SCF CONVERGENCE
---------------

  Last Energy change         ...    8.9474e-09  Tolerance :   1.0000e-08
  Last MAX-Density change    ...    8.1867e-05  Tolerance :   1.0000e-07
  Last RMS-Density change    ...    2.7592e-06  Tolerance :   5.0000e-09
  Last DIIS Error            ...    1.1698e-03  Tolerance :   5.0000e-07
  Last Orbital Gradient      ...    2.7203e-05  Tolerance :   1.0000e-05
  Last Orbital Rotation      ...    2.3120e-05  Tolerance :   1.0000e-05


Total SCF time: 0 days 0 hours 0 min 0 sec 
Finished LeanSCF after   0.7 sec

Maximum memory used throughout the entire LEANSCF-calculation: 10.4 MB

-------------------------   --------------------
FINAL SINGLE POINT ENERGY      -959.845023396684
-------------------------   --------------------

------------------------------------------------------------------------------
                         ORCA SCF GRADIENT CALCULATION
------------------------------------------------------------------------------

Nuc. rep. gradient        (SHARK) ... done (  0.0 sec)
HCore & Overlap gradient  (SHARK) ... done (  0.0 sec)
Split-RIJ-J gradient      (SHARK) ... done (  0.1 sec)
XC gradient                       ... done (  0.4 sec)
CPCM gradient                     ... done (  0.1 sec)

------------------
CARTESIAN GRADIENT
------------------

   1   C   :   -0.000012552   -0.001713375    0.000038730
   2   Cl  :    0.000698699    0.000530472   -0.000028477
   3   Cl  :   -0.000684103    0.000556804   -0.000002721
   4   H   :   -0.000002561    0.000306628   -0.000104606
   5   H   :    0.000000517    0.000319472    0.000097074

Difference to translation invariance:
           :    0.0000000000    0.0000000000    0.0000000000

Difference to rotation invariance:
           :   -0.0000323797   -0.0000335269   -0.0000495441

Norm of the Cartesian gradient     ...    0.0021684544
RMS gradient                       ...    0.0005598925
MAX gradient                       ...    0.0017133753

-------
TIMINGS
-------

Total SCF gradient time     ....        0.695 sec

Densities                   ....       0.000 sec  (  0.0%)
One electron gradient       ....       0.011 sec  (  1.6%)
RI-J Coulomb gradient       ....       0.134 sec  ( 19.3%)
XC gradient                 ....       0.434 sec  ( 62.4%)
CPCM gradient               ....       0.060 sec  (  8.6%)
   A-Matrix (El+Nuc)        ....       0.005 sec  (  0.7%)
   Potential                ....       0.055 sec  (  7.9%)

Maximum memory used throughout the entire SCFGRAD-calculation: 13.5 MB
------------------------------------------------------------------------------
                         ORCA GEOMETRY RELAXATION STEP
------------------------------------------------------------------------------

Reading the OPT-File                    .... done
Getting information on internals        .... done
Copying old internal coords+grads       .... done
Making the new internal coordinates     .... (2022 redundants) done
Validating the new internal coordinates .... (2022 redundants) done
Calculating the B-matrix                .... done
Calculating the G,G- and P matrices     .... done
Transforming gradient to internals      .... done
Projecting the internal gradient        .... done
Number of atoms                         ....   5
Number of internal coordinates          ....  10
Current Energy                          ....  -959.845023397 Eh
Current gradient norm                   ....     0.002168454 Eh/bohr
Maximum allowed component of the step   ....  0.300
Current trust radius                    ....  0.300
Updating the Hessian (BFGS)             .... done
Forming the augmented Hessian           .... done
Diagonalizing the augmented Hessian     .... done
Last element of RFO vector              ....  0.999971219
Lowest eigenvalues of augmented Hessian:
 -0.000010718  0.185729459  0.311846369  0.320116058  0.327767983
Length of the computed step             ....  0.007587145
The final length of the internal step   ....  0.007587145
Converting the step to Cartesian space:
 Initial RMS(Int)=    0.0023992659
Transforming coordinates:
 Iter   0:  RMS(Cart)=    0.0014693552 RMS(Int)=    0.0023989784
done
Storing new coordinates                 .... done
The predicted energy change is          ....    -0.000005359
Previously predicted energy change      ....    -0.000022431
Actually observed energy change         ....    -0.000030060
Ratio of predicted to observed change   ....     1.340095722
New trust radius                        ....     0.300000000

                                .--------------------.
          ----------------------|Geometry convergence|-------------------------
          Item                value                   Tolerance       Converged
          ---------------------------------------------------------------------
          Energy change      -0.0000300596            0.0000050000      NO
          RMS gradient        0.0004472895            0.0001000000      NO
          MAX gradient        0.0008786050            0.0003000000      NO
          RMS step            0.0023992659            0.0020000000      NO
          MAX step            0.0047976358            0.0040000000      NO
          ........................................................
          Max(Bonds)      0.0025      Max(Angles)    0.17
          Max(Dihed)        0.00      Max(Improp)    0.00
          ---------------------------------------------------------------------

The optimization has not yet converged - more geometry cycles are needed


    ---------------------------------------------------------------------------
                         Redundant Internal Coordinates
                            (Angstroem and degrees)

        Definition                    Value    dE/dq     Step     New-Value
    ----------------------------------------------------------------------------
     1. B(Cl  1,C   0)                1.7947  0.000876 -0.0025    1.7922   
     2. B(Cl  2,C   0)                1.7947  0.000879 -0.0025    1.7922   
     3. B(H   3,C   0)                1.0912 -0.000088  0.0002    1.0914   
     4. B(H   4,C   0)                1.0911 -0.000087  0.0002    1.0914   
     5. A(Cl  1,C   0,H   3)          107.87 -0.000068    0.02    107.89   
     6. A(Cl  2,C   0,H   3)          107.88 -0.000074    0.03    107.91   
     7. A(Cl  1,C   0,H   4)          107.88 -0.000075    0.03    107.91   
     8. A(Cl  2,C   0,H   4)          107.87 -0.000074    0.03    107.90   
     9. A(H   3,C   0,H   4)          113.25  0.000582   -0.17    113.07   
    10. A(Cl  1,C   0,Cl  2)          112.17 -0.000292    0.07    112.24   
    ----------------------------------------------------------------------------

Geometry step timings:
Preparation and reading OPT file:      0.000 s (25.065 %)
Internal coordinates            :      0.000 s ( 2.350 %)
B/P matrices and projection     :      0.000 s ( 8.616 %)
Hessian update/contruction      :      0.000 s (28.982 %)
Making the step                 :      0.000 s ( 4.700 %)
Converting the step to Cartesian:      0.000 s ( 1.958 %)
Storing new data                :      0.000 s ( 7.180 %)
Checking convergence            :      0.000 s ( 1.044 %)
Final printing                  :      0.000 s (20.104 %)
Total time                      :      0.001 s

Time for energy+gradient        :      1.721 s
Time for complete geometry iter :      1.773 s

         *************************************************************
         *                GEOMETRY OPTIMIZATION CYCLE   3            *
         *************************************************************
---------------------------------
CARTESIAN COORDINATES (ANGSTROEM)
---------------------------------
  C     -0.001574   -0.158826    0.003909
  Cl     1.495556    0.824234   -0.059499
  Cl    -1.479088    0.855406    0.018438
  H     -0.031379   -0.782395   -0.891320
  H      0.016484   -0.738420    0.928472

----------------------------
CARTESIAN COORDINATES (A.U.)
----------------------------
  NO LB      ZA    FRAG     MASS         X           Y           Z
   0 C     6.0000    0    12.011   -0.002974   -0.300137    0.007386
   1 Cl   17.0000    0    35.453    2.826191    1.557577   -0.112437
   2 Cl   17.0000    0    35.453   -2.795071    1.616483    0.034843
   3 H     1.0000    0     1.008   -0.059297   -1.478511   -1.684351
   4 H     1.0000    0     1.008    0.031150   -1.395411    1.754558

--------------------------------
INTERNAL COORDINATES (ANGSTROEM)
--------------------------------
 C      0   0   0     0.000000000000     0.00000000     0.00000000
 Cl     1   0   0     1.792156459266     0.00000000     0.00000000
 Cl     1   2   0     1.792184268688   112.24477746     0.00000000
 H      1   2   3     1.091403139956   107.89028284   118.75741913
 H      1   2   3     1.091362845749   107.90643138   241.24362146

---------------------------
INTERNAL COORDINATES (A.U.)
---------------------------
 C      0   0   0     0.000000000000     0.00000000     0.00000000
 Cl     1   0   0     3.386684897150     0.00000000     0.00000000
 Cl     1   2   0     3.386737449342   112.24477746     0.00000000
 H      1   2   3     2.062453036219   107.89028284   118.75741913
 H      1   2   3     2.062376891202   107.90643138   241.24362146

------------------------------------------------------------------------------
                   ___                                                        
                  /   \      - P O W E R E D   B Y -                         
                 /     \                                                     
                 |  |  |   _    _      __       _____    __    __             
                 |  |  |  | |  | |    /  \     |  _  \  |  |  /  |          
                  \  \/   | |  | |   /    \    | | | |  |  | /  /          
                 / \  \   | |__| |  /  /\  \   | |_| |  |  |/  /          
                |  |  |   |  __  | /  /__\  \  |    /   |      \           
                |  |  |   | |  | | |   __   |  |    \   |  |\   \          
                \     /   | |  | | |  |  |  |  | |\  \  |  | \   \       
                 \___/    |_|  |_| |__|  |__|  |_| \__\ |__|  \__/        
                                                                              
                      - O R C A' S   B I G   F R I E N D -                    
                                      &                                       
                       - I N T E G R A L  F E E D E R -                       
                                                                              
 v1 FN, 2020, v2 2021, v3 2022-2024                                           
------------------------------------------------------------------------------


----------------------
SHARK INTEGRAL PACKAGE
----------------------

Number of atoms                             ...      5
Number of basis functions                   ...    117
Number of shells                            ...     45
Maximum angular momentum                    ...      3
Integral batch strategy                     ... SHARK/LIBINT Hybrid
RI-J (if used) integral strategy            ... SPLIT-RIJ (Revised 2003 algorithm where possible)
Printlevel                                  ...      1
Contraction scheme used                     ... SEGMENTED contraction
Prescreening option                         ... SCHWARTZ
   Thresh                                   ... 2.500e-11
   Tcut                                     ... 2.500e-12
   Tpresel                                  ... 2.500e-12 
Coulomb Range Separation                    ... NOT USED
Exchange Range Separation                   ... NOT USED
Multipole approximations                    ... NOT USED
Finite Nucleus Model                        ... NOT USED
CABS basis                                  ... NOT available
Auxiliary Coulomb fitting basis             ... AVAILABLE
   # of basis functions in Aux-J            ...    173
   # of shells in Aux-J                     ...     59
   Maximum angular momentum in Aux-J        ...      4
Auxiliary J/K fitting basis                 ... NOT available
Auxiliary Correlation fitting basis         ... NOT available
Auxiliary 'external' fitting basis          ... NOT available

Checking pre-screening integrals            ... done (  0.0 sec) Dimension = 45
Check shell pair data                       ... done (  0.0 sec)
Shell pair information
Shell pair cut-off parameter TPreSel        ...   2.5e-12
Total number of shell pairs                 ...      1035
Shell pairs after pre-screening             ...       998
Total number of primitive shell pairs       ...      3841
Primitive shell pairs kept                  ...      2952
          la=0 lb=0:    216 shell pairs
          la=1 lb=0:    299 shell pairs
          la=1 lb=1:    116 shell pairs
          la=2 lb=0:    124 shell pairs
          la=2 lb=1:     90 shell pairs
          la=2 lb=2:     21 shell pairs
          la=3 lb=0:     63 shell pairs
          la=3 lb=1:     45 shell pairs
          la=3 lb=2:     18 shell pairs
          la=3 lb=3:      6 shell pairs

Calculating one electron integrals          ... done (  0.0 sec)
Calculating RI/J V-Matrix + Cholesky decomp.... done (  0.0 sec)
Calculating Nuclear repulsion               ... done (  0.0 sec) ENN=    132.934710351570 Eh

Diagonalization of the overlap matrix:
Smallest eigenvalue                        ... 2.434e-03
Time for diagonalization                   ...    0.001 sec
Threshold for overlap eigenvalues          ... 1.000e-07
Number of eigenvalues below threshold      ... 0
Time for construction of square roots      ...    0.000 sec
Total time needed                          ...    0.001 sec

-------------------
DFT GRID GENERATION
-------------------

General Integration Accuracy     IntAcc      ... 4.388
Radial Grid Type                 RadialGrid  ... OptM3 with GC (2021)
Angular Grid (max. ang.)         AngularGrid ... 4 (Lebedev-302)
Angular grid pruning method      GridPruning ... 4 (adaptive)
Weight generation scheme         WeightScheme... mBecke (2022)
Basis function cutoff            BFCut       ... 1.0000e-11
Integration weight cutoff        WCut        ... 1.0000e-14
Partially contracted basis set               ... off
Rotationally invariant grid construction     ... off
Angular grids for H and He will be reduced by one unit

Total number of grid points                  ...    27362
Total number of batches                      ...      431
Average number of points per batch           ...       63
Average number of grid points per atom       ...     5472
Initializing property integral containers    ... done (  0.0 sec)

SHARK setup successfully completed in   0.1 seconds

Maximum memory used throughout the entire STARTUP-calculation: 15.3 MB
Occupation numbers will be reassigned to an Aufbau configuration
             **** ENERGY FILE WAS UPDATED (geo_opt_tzvp.en.tmp) ****
Finished Guess after   0.0 sec
Maximum memory used throughout the entire GUESS-calculation: 10.2 MB
--------------------
CPCM SOLVATION MODEL
--------------------
CPCM parameters:
  Epsilon                                         ...     INFINITY
  Refrac                                          ...       1.3300
  Rsolv                                           ...       1.3000
  Surface type                                    ... GAUSSIAN VDW
  Discretization scheme                           ... Constant charge density
    Threshold for H atoms                         ...       5.0000 (charges/Ang^2)
    Threshold for non-H atoms                     ...       5.0000 (charges/Ang^2)
  Epsilon function type                           ...         CPCM
Solvent:                                          ... CONDUCTOR
Radii:
  Scheme                                          ... Element-dependent radii
  Radius for C  used is    3.7795 Bohr (=   2.0000 Ang.)
  Radius for Cl used is    3.8739 Bohr (=   2.0500 Ang.)
  Radius for H  used is    2.4566 Bohr (=   1.3000 Ang.)
Calculating surface                               ...        done! (  0.0s)
Cavity surface points                             ...          621
Cavity Volume                                     ...     546.9106
Cavity Surface-area                               ...     356.9396
Calculating surface distance matrix               ...        done! (  0.0s)
Performing Cholesky decomposition & store         ...        done! (  0.0s)
[...]
Performing Cholesky decomposition & store         ...        done! (  0.0s)
Overall time for CPCM initialization              ...                 0.0s

----------------------------------------D-I-I-S--------------------------------------------
Iteration    Energy (Eh)           Delta-E    RMSDP     MaxDP     DIISErr   Damp  Time(sec)
-------------------------------------------------------------------------------------------
               ***  Starting incremental Fock matrix formation  ***
    1    -959.8450309743209345     0.00e+00  1.89e-03  7.10e-02  1.53e-02  0.700   0.2
    2    -959.8455886469159850    -5.58e-04  1.70e-03  7.15e-02  1.07e-02  0.700   0.2
                               ***Turning on AO-DIIS***
    3    -959.8460368309258683    -4.48e-04  1.29e-03  5.61e-02  7.50e-03  0.700   0.2
    4    -959.8463607933508683    -3.24e-04  3.11e-03  1.36e-01  5.25e-03  0.000   0.2
                              *** Initializing SOSCF ***
---------------------------------------S-O-S-C-F--------------------------------------
Iteration    Energy (Eh)           Delta-E    RMSDP     MaxDP     MaxGrad    Time(sec)
--------------------------------------------------------------------------------------
    5    -959.8471299915145210    -7.69e-04  5.03e-05  1.66e-03  3.72e-04     0.2
               *** Restarting incremental Fock matrix formation ***
    6    -959.8471311672822139    -1.18e-06  2.14e-05  4.95e-04  1.23e-04     0.2
    7    -959.8471314318012446    -2.65e-07  6.54e-06  1.74e-04  1.21e-05     0.2
    8    -959.8471314309506397     8.51e-10  9.22e-07  1.49e-05  1.55e-05     0.2
                 **** Energy Check signals convergence ****

               *****************************************************
               *                     SUCCESS                       *
               *           SCF CONVERGED AFTER   8 CYCLES          *
               *****************************************************

             **** ENERGY FILE WAS UPDATED (single_point_tzvpd.en.tmp) ****

----------------
TOTAL SCF ENERGY
----------------

Total Energy       :       -959.84713143095064 Eh          -26118.76830 eV

Components:
Nuclear Repulsion  :        132.92789787754282 Eh            3617.15199 eV
Electronic Energy  :      -1092.76833716270835 Eh          -29735.73819 eV
One Electron Energy:      -1587.87246678170845 Eh          -43208.20648 eV
Two Electron Energy:        495.10412961900010 Eh           13472.46829 eV
CPCM Dielectric    :         -0.00669214578519 Eh              -0.18210 eV

Virial components:
Potential Energy   :      -1917.91342821840635 Eh          -52189.07762 eV
Kinetic Energy     :        958.06629678745560 Eh           26070.30932 eV
Virial Ratio       :          2.00185878017990

DFT components:
N(Alpha)           :       21.000005245992 electrons
N(Beta)            :       21.000005245992 electrons
N(Total)           :       42.000010491984 electrons
E(X)               :      -60.943021949011 Eh       
E(C)               :       -1.792171836969 Eh       
E(XC)              :      -62.735193785980 Eh       

CPCM Solvation Model Properties:
Surface-charge          :         -0.02278105432092
Corrected charge        :         -0.00000000000000
Outlying charge corr.   :          0.00004932263562 Eh               0.00134 eV
Free-energy (cav+disp)  :  This term is not implemented in the current solvation scheme

---------------
SCF CONVERGENCE
---------------

  Last Energy change         ...   -8.5060e-10  Tolerance :   1.0000e-08
  Last MAX-Density change    ...    1.4881e-05  Tolerance :   1.0000e-07
  Last RMS-Density change    ...    9.2243e-07  Tolerance :   5.0000e-09
  Last DIIS Error            ...    3.7153e-04  Tolerance :   5.0000e-07
  Last Orbital Gradient      ...    1.5521e-05  Tolerance :   1.0000e-05
  Last Orbital Rotation      ...    1.6003e-05  Tolerance :   1.0000e-05


----------------
ORBITAL ENERGIES
----------------

  NO   OCC          E(Eh)            E(eV) 
   0   2.0000    -100.728189     -2740.9534 
   1   2.0000    -100.728175     -2740.9530 
   2   2.0000     -10.010676      -272.4043 
   3   2.0000      -9.193418      -250.1656 
   4   2.0000      -9.193404      -250.1652 
   5   2.0000      -7.016461      -190.9276 
   6   2.0000      -7.016446      -190.9272 
   7   2.0000      -7.006222      -190.6490 
   8   2.0000      -7.006207      -190.6486 
   9   2.0000      -7.005651      -190.6334 
  10   2.0000      -7.005636      -190.6330 
  11   2.0000      -0.825903       -22.4740 
  12   2.0000      -0.758562       -20.6415 
  13   2.0000      -0.601977       -16.3806 
  14   2.0000      -0.440061       -11.9747 
  15   2.0000      -0.416574       -11.3355 
  16   2.0000      -0.408751       -11.1227 
  17   2.0000      -0.297893        -8.1061 
  18   2.0000      -0.293769        -7.9938 
  19   2.0000      -0.279676        -7.6104 
  20   2.0000      -0.271297        -7.3824 
  21   0.0000      -0.056166        -1.5283 
  22   0.0000      -0.020485        -0.5574 
  23   0.0000       0.004036         0.1098 
  24   0.0000       0.031623         0.8605 
  25   0.0000       0.032664         0.8888 
  26   0.0000       0.032957         0.8968 
  27   0.0000       0.061605         1.6763 
  28   0.0000       0.066007         1.7961 
  29   0.0000       0.066261         1.8031 
  30   0.0000       0.082566         2.2467 
  31   0.0000       0.106665         2.9025 
*Only the first 10 virtual orbitals were printed.

                    ********************************
                    * MULLIKEN POPULATION ANALYSIS *
                    ********************************

-----------------------
MULLIKEN ATOMIC CHARGES
-----------------------
   0 C :   -0.203238
   1 Cl:   -0.228221
   2 Cl:   -0.228205
   3 H :    0.329580
   4 H :    0.330085
Sum of atomic charges:   -0.0000000

--------------------------------
MULLIKEN REDUCED ORBITAL CHARGES
--------------------------------
  0 C s       :     3.275469  s :     3.275469
      pz      :     1.244984  p :     2.823676
      px      :     0.658759
      py      :     0.919934
      dz2     :     0.012779  d :     0.097941
      dxz     :    -0.003695
      dyz     :     0.050999
      dx2y2   :     0.014305
      dxy     :     0.023554
      f0      :     0.000661  f :     0.006153
      f+1     :     0.000401
      f-1     :     0.001090
      f+2     :    -0.000039
      f-2     :     0.000913
      f+3     :     0.001780
      f-3     :     0.001347

  1 Cls       :     5.969845  s :     5.969845
      pz      :     3.981645  p :    11.192157
      px      :     3.456307
      py      :     3.754205
      dz2     :     0.008198  d :     0.061254
      dxz     :     0.011983
      dyz     :     0.006477
      dx2y2   :     0.016160
      dxy     :     0.018435
      f0      :     0.000452  f :     0.004966
      f+1     :     0.000775
      f-1     :     0.000328
      f+2     :     0.000080
      f-2     :     0.000728
      f+3     :     0.000945
      f-3     :     0.001657

  2 Cls       :     5.969840  s :     5.969840
      pz      :     3.982443  p :    11.192157
      px      :     3.468874
      py      :     3.740839
      dz2     :     0.008184  d :     0.061243
      dxz     :     0.011665
      dyz     :     0.006758
      dx2y2   :     0.016061
      dxy     :     0.018575
      f0      :     0.000451  f :     0.004965
      f+1     :     0.000759
      f-1     :     0.000346
      f+2     :     0.000062
      f-2     :     0.000738
      f+3     :     0.000965
      f-3     :     0.001644

  3 H s       :     0.607555  s :     0.607555
      pz      :     0.023474  p :     0.062865
      px      :     0.016463
      py      :     0.022929

  4 H s       :     0.607163  s :     0.607163
      pz      :     0.025152  p :     0.062752
      px      :     0.016423
      py      :     0.021177



                     *******************************
                     * LOEWDIN POPULATION ANALYSIS *
                     *******************************

----------------------
LOEWDIN ATOMIC CHARGES
----------------------
   0 C :   -0.979462
   1 Cl:    0.451140
   2 Cl:    0.451113
   3 H :    0.038618
   4 H :    0.038591

-------------------------------
LOEWDIN REDUCED ORBITAL CHARGES
-------------------------------
  0 C s       :     2.878746  s :     2.878746
      pz      :     1.087138  p :     2.929455
      px      :     0.890816
      py      :     0.951501
      dz2     :     0.128756  d :     1.125305
      dxz     :     0.201863
      dyz     :     0.177696
      dx2y2   :     0.293148
      dxy     :     0.323841
      f0      :     0.004492  f :     0.045957
      f+1     :     0.005435
      f-1     :     0.004770
      f+2     :     0.003866
      f-2     :     0.005304
      f+3     :     0.010884
      f-3     :     0.011205

  1 Cls       :     5.501270  s :     5.501270
      pz      :     3.783698  p :    10.788189
      px      :     3.399684
      py      :     3.604806
      dz2     :     0.029393  d :     0.248736
      dxz     :     0.048977
      dyz     :     0.028256
      dx2y2   :     0.064827
      dxy     :     0.077283
      f0      :     0.001118  f :     0.010665
      f+1     :     0.001500
      f-1     :     0.000686
      f+2     :     0.000241
      f-2     :     0.001711
      f+3     :     0.002219
      f-3     :     0.003190

  2 Cls       :     5.501281  s :     5.501281
      pz      :     3.784314  p :    10.788211
      px      :     3.409097
      py      :     3.594801
      dz2     :     0.029275  d :     0.248730
      dxz     :     0.047566
      dyz     :     0.029632
      dx2y2   :     0.065229
      dxy     :     0.077028
      f0      :     0.001119  f :     0.010664
      f+1     :     0.001465
      f-1     :     0.000720
      f+2     :     0.000186
      f-2     :     0.001752
      f+3     :     0.002261
      f-3     :     0.003163

  3 H s       :     0.707262  s :     0.707262
      pz      :     0.099887  p :     0.254120
      px      :     0.069085
      py      :     0.085148

  4 H s       :     0.707274  s :     0.707274
      pz      :     0.103149  p :     0.254135
      px      :     0.069056
      py      :     0.081930



                      *****************************
                      * MAYER POPULATION ANALYSIS *
                      *****************************

  NA   - Mulliken gross atomic population
  ZA   - Total nuclear charge
  QA   - Mulliken gross atomic charge
  VA   - Mayer's total valence
  BVA  - Mayer's bonded valence
  FA   - Mayer's free valence

  ATOM       NA         ZA         QA         VA         BVA        FA
  0 C      6.2032     6.0000    -0.2032     3.5179     3.5179    -0.0000
  1 Cl    17.2282    17.0000    -0.2282     1.0486     1.0486    -0.0000
  2 Cl    17.2282    17.0000    -0.2282     1.0485     1.0485    -0.0000
  3 H      0.6704     1.0000     0.3296     1.0064     1.0064    -0.0000
  4 H      0.6699     1.0000     0.3301     1.0056     1.0056    -0.0000

  Mayer bond orders larger than 0.100000
B(  0-C ,  1-Cl) :   0.8764 B(  0-C ,  2-Cl) :   0.8764 B(  0-C ,  3-H ) :   0.8829 
B(  0-C ,  4-H ) :   0.8823 

-------
TIMINGS
-------

Total SCF time: 0 days 0 hours 0 min 1 sec 

Total time                  ....       1.561 sec
Sum of individual times     ....       1.559 sec  ( 99.9%)

SCF preparation             ....       0.018 sec  (  1.1%)
Fock matrix formation       ....       1.513 sec  ( 97.0%)
  Startup                   ....       0.002 sec  (  0.1% of F)
  Split-RI-J                ....       0.194 sec  ( 12.8% of F)
  XC integration            ....       1.010 sec  ( 66.7% of F)
    Basis function eval.    ....       0.339 sec  ( 33.6% of XC)
    Density eval.           ....       0.167 sec  ( 16.5% of XC)
    XC-Functional eval.     ....       0.036 sec  (  3.6% of XC)
    XC-Potential eval.      ....       0.420 sec  ( 41.6% of XC)
  CPCM terms                ....       0.294 sec  ( 19.4% of F)
Diagonalization             ....       0.000 sec  (  0.0%)
Density matrix formation    ....       0.004 sec  (  0.2%)
Total Energy calculation    ....       0.002 sec  (  0.1%)
Population analysis         ....       0.003 sec  (  0.2%)
Orbital Transformation      ....       0.003 sec  (  0.2%)
Orbital Orthonormalization  ....       0.000 sec  (  0.0%)
DIIS solution               ....       0.013 sec  (  0.8%)
SOSCF solution              ....       0.004 sec  (  0.3%)
Finished LeanSCF after   1.6 sec

Maximum memory used throughout the entire LEANSCF-calculation: 12.3 MB

-------------------------   --------------------
FINAL SINGLE POINT ENERGY      -959.847131430951
-------------------------   --------------------


------------------------------------------------------------------------------
                              ORCA PROPERTY CALCULATIONS
------------------------------------------------------------------------------

GBWName                                 ... single_point_tzvpd.gbw
Number of atoms                         ...      5
Number of basis functions               ...    147
Max core memory                         ...   2000 MB

Electric properties:
Dipole moment                           ... YES
Quadrupole moment                       ...  NO
Static polarizability (Dipole/Dipole)   ...  NO
Static polarizability (Dipole/Quad.)    ...  NO
Static polarizability (Quad./Quad.)     ...  NO
Static polarizability (Velocity)        ...  NO

Atomic electric properties:
Dipole moment                           ...  NO
Quadrupole moment                       ...  NO
Static polarizability                   ...  NO

Choice of electric origin               ... Center of mass
Position of electric origin             ...     0.012243     1.248853    -0.030525

General magnetic properties:
Magnetizability                         ...  NO

EPR properties:
g-Tensor (aka g-matrix)                 ...  NO
Zero-Field splitting spin-orbit         ...  NO
Zero-field splitting spin-spin          ...  NO
Hyperfine couplings                     ...  NO (   0 nuclei)
Quadrupole couplings                    ...  NO (   0 nuclei)
Contact density                         ...  NO (   0 nuclei)

NMR properties:
Chemical shifts                         ...  NO (   0 nuclei)
Spin-rotation constants                 ...  NO (   0 nuclei)
Spin-spin couplings                     ...  NO (   0 nuclei,    0 pairs)

Choice of magnetic origin               ... GIAO
Position of magnetic origin             ...     0.000000     0.000000     0.000000

Properties with geometric perturbations:
SCF Hessian                             ...  NO
IR spectrum                             ...  NO
VCD spectrum                            ...  NO
X-ray spectroscopy properties:
SCF XES/XAS/RIXS spectra                ...  NO


-------------
DIPOLE MOMENT
-------------

Method             : SCF
Type of density    : Electron Density
Multiplicity       :   1
Irrep              :   0
Energy             :  -959.8471314309506397 Eh
Relativity type    : 
Basis              : AO
                                X                 Y                 Z
Electronic contribution:      0.022015160       2.234947543      -0.054959160
Nuclear contribution   :     -0.030864264      -3.148837831       0.076960758
                        -----------------------------------------
Total Dipole Moment    :     -0.008849104      -0.913890288       0.022001598
                        -----------------------------------------
Magnitude (a.u.)       :      0.914197919
Magnitude (Debye)      :      2.323706443



--------------------
Rotational spectrum 
--------------------
 
Rotational constants in cm-1:             1.048467             0.106214             0.098319 
Rotational constants in MHz :         31432.245736          3184.203464          2947.543718 

Dipole components along the rotational axes: 
x,y,z [a.u.] :     0.000152     0.914198    -0.000357 
x,y,z [Debye]:     0.000386     2.323706    -0.000907 

 

Dipole moment calculation done in   0.0 sec 

Maximum memory used throughout the entire PROP-calculation: 8.6 MB

--------------------------------
SUGGESTED CITATIONS FOR THIS RUN
--------------------------------

Below you find a list of papers that are relevant to this ORCA run
We neither can nor want to force you to cite these papers, but we appreciate if you do
You receive ORCA, which is the product of decades of hard work by many enthusiastic individuals, for free
The only thing we kindly ask in return is that you cite our papers,
We deeply appreciate it, if you show your appreciation for ORCA by not just citing the generic ORCA reference.

Please note that relegating all ORCA citations to the supporting information does *not* help us.
SI sections are not indexed - citations you put there will not count into any citation statistics
But we need these citations in order to attract the funding resources that allow us to do what we are doing

Therefore, if you are a happy ORCA user, please consider citing a few of the papers listed below in the main body of your paper

In addition to the list printed below, the program has created the file single_point_tzvpd.bibtex that contains the list in bibtex format
You can import this file easily into all common literature databanks and citation aid programs


List of essential papers. We consider these as the minimum necessary citations

  1. Neese,F.
     Software update: the ORCA program system, version 5.0
     WIRES Comput. Molec. Sci., 2022 12(1)e1606
     doi.org/10.1002/wcms.1606

List of papers to cite with high priority. The work reported in these papers was absolutely
necessary for this run to complete.
Our perspective: the developers of density functionals and basis sets usually get cited in chemistry papers
Good! But without the algorithms to do something with them, the functionals or basis sets would not do anything.
Hence, in our opinion, the algorithm design and method developments papers are equally worthy of getting cited

  1. Neese,F.
     An improvement of the resolution of the identity approximation for the formation of the Coulomb matrix
     J. Comp. Chem., 2003 24(14)1740-1747
     doi.org/10.1002/jcc.10318
  2. Garcia-Rates,M.; Neese,F.
     Effect of the Solute Cavity on the Solvation Energy and its Derivatives within the Framework of the Gaussian Charge Scheme
     J. Comput. Chem., 2020 41 922-939
     doi.org/10.1002/jcc.26139
  3. Neese,F.
     The SHARK Integral Generation and Digestion System
     J. Comp. Chem., 2022  1-16
     doi.org/10.1002/jcc.26942

List of suggested additional citations. These are papers that are important in the 'surrounding' of 
of this run, or papers that preceded the highly important papers. If you like your results we are grateful for a citation.

  1. Neese,F.
     The ORCA program system
     WIRES Comput. Molec. Sci., 2012 2(1)73-78
     doi.org/10.1002/wcms.81
  2. Neese,F.
     Software update: the ORCA program system, version 4.0
     WIRES Comput. Molec. Sci., 2018 8(1)1-6
     doi.org/10.1002/wcms.1327
  3. Neese,F.; Wennmohs,F.; Becker,U.; Riplinger,C.
     The ORCA quantum chemistry program package
     J. Chem. Phys., 2020 152 Art. No. L224108
     doi.org/10.1063/5.0004608

List of optional additional citations

  1. Neese,F.
     Approximate second-order SCF convergence for spin unrestricted wavefunctions
     Chem. Phys. Lett., 2000 325(1-3)93-98
     doi.org/10.1016/s0009-2614(00)00662-x

Timings for individual modules:

Sum of individual times          ...        1.884 sec (=   0.031 min)
Startup calculation              ...        0.164 sec (=   0.003 min)   8.7 %
SCF iterations                   ...        1.665 sec (=   0.028 min)  88.4 %
Property calculations            ...        0.055 sec (=   0.001 min)   2.9 %



                             ****ORCA TERMINATED NORMALLY****
TOTAL RUN TIME: 0 days 0 hours 0 minutes 10 seconds 450 msec
