
                                 *****************
                                 * O   R   C   A *
                                 *****************

                                            #,                                       
                                            ###                                      
                                            ####                                     
                                            #####                                    
                                            ######                                   
                                           ########,                                 
                                     ,,################,,,,,                         
                               ,,#################################,,                 
                          ,,##########################################,,             
                       ,#########################################, ''#####,          
                    ,#############################################,,   '####,        
                  ,##################################################,,,,####,       
                ,###########''''           ''''###############################       
              ,#####''   ,,,,##########,,,,          '''####'''          '####       
            ,##' ,,,,###########################,,,                        '##       
           ' ,,###''''                  '''############,,,                           
         ,,##''                                '''############,,,,        ,,,,,,###''
      ,#''                                            '''#######################'''  
     '                                                          ''''####''''         
             ,#######,   #######,   ,#######,      ##                                
            ,#'     '#,  ##    ##  ,#'     '#,    #''#        ,####,   ,####,        
            ##       ##  ##   ,#'  ##            #'  '#       #'       #'  '#        
            ##       ##  #######   ##           ,######,      #####,   #    #        
            '#,     ,#'  ##    ##  '#,     ,#' ,#      #,     #,   #   #,  ,#        
             '#######'   ##     ##  '#######'  #'      '#     '####' # '####'        



                #########################################################
                #                        -***-                          #
                #          Department of theory and spectroscopy        #
                #                                                       #
                #                      Frank Neese                      #
                #                                                       #
                #     Directorship, Architecture, Infrastructure        #
                #                    SHARK, DRIVERS                     #
                #        Core code/Algorithms in most modules           #
                #                                                       #
                #        Max Planck Institute fuer Kohlenforschung      #
                #                Kaiser Wilhelm Platz 1                 #
                #                 D-45470 Muelheim/Ruhr                 #
                #                      Germany                          #
                #                                                       #
                #                  All rights reserved                  #
                #                        -***-                          #
                #########################################################


                         Program Version 6.0.0  -   RELEASE  -


 With contributions from (in alphabetic order):
   Daniel Aravena         : Magnetic Suceptibility
   Michael Atanasov       : Ab Initio Ligand Field Theory (pilot matlab implementation)
   Alexander A. Auer      : GIAO ZORA, VPT2 properties, NMR spectrum
   Ute Becker             : All parallelization in ORCA, NUMFREQ, NUMCALC
   Giovanni Bistoni       : ED, misc. LED, open-shell LED, HFLD
   Martin Brehm           : Molecular dynamics
   Dmytro Bykov           : pre 5.0 version of the SCF Hessian
   Marcos Casanova-Páez   : Triplet and SCS-CIS(D). UHF-(DLPNO)-IP/EA/STEOM-CCSD. UHF-CVS-IP/STEOM-CCSD
   Vijay G. Chilkuri      : MRCI spin determinant printing, contributions to CSF-ICE
   Pauline Colinet        : FMM embedding
   Dipayan Datta          : RHF DLPNO-CCSD density
   Achintya Kumar Dutta   : EOM-CC, STEOM-CC
   Nicolas Foglia         : Exact transition moments, OPA infrastructure, MCD improvements
   Dmitry Ganyushin       : Spin-Orbit,Spin-Spin,Magnetic field MRCI
   Miquel Garcia          : C-PCM and meta-GGA Hessian, CCSD/C-PCM, Gaussian charge scheme
   Tiago L. C. Gouveia    : GS-ROHF, GS-ROCIS
   Yang Guo               : DLPNO-NEVPT2, F12-NEVPT2, CIM, IAO-localization
   Andreas Hansen         : Spin unrestricted coupled pair/coupled cluster methods
   Ingolf Harden          : AUTO-CI MPn and infrastructure 
   Benjamin Helmich-Paris : MC-RPA, TRAH-(SCF,CASSCF), AVAS, COSX integrals, SCF dyn. polar.
   Lee Huntington         : MR-EOM, pCC
   Robert Izsak           : Overlap fitted RIJCOSX, COSX-SCS-MP3, EOM
   Riya Kayal             : Wick's Theorem for AUTO-CI, AUTO-CI UHF-CCSDT
   Emily Kempfer          : AUTO-CI, RHF CISDT and CCSDT
   Christian Kollmar      : KDIIS, OOCD, Brueckner-CCSD(T), CCSD density, CASPT2, CASPT2-K, improved NEVPT2
   Axel Koslowski         : Symmetry handling
   Simone Kossmann        : Meta GGA functionals, TD-DFT gradient, OOMP2, (MP2 Hessian; deprecated post 5.0)
   Lucas Lang             : DCDCAS
   Marvin Lechner         : AUTO-CI (C++ implementation), FIC-MRCC
   Spencer Leger          : CASSCF response
   Dagmar Lenk            : GEPOL surface, SMD, ORCA-2-JSON
   Dimitrios Liakos       : Extrapolation schemes; Compound Job, initial MDCI parallelization
   Dimitrios Manganas     : Further ROCIS development; embedding schemes. LFT, Crystal Embedding
   Dimitrios Pantazis     : SARC Basis sets
   Anastasios Papadopoulos: AUTO-CI, single reference methods and gradients
   Taras Petrenko         : pre 6.0 DFT Hessian and TD-DFT gradient, (ASA, deprecated), ECA, 1-Electron XAS/XES, NRVS
   Peter Pinski           : DLPNO-MP2, DLPNO-MP2 Gradient
   Christoph Reimann      : Effective Core Potentials
   Marius Retegan         : Local ZFS, SOC
   Christoph Riplinger    : Optimizer, TS searches, QM/MM, DLPNO-CCSD(T), (RO)-DLPNO pert. Triples
   Michael Roemelt        : Original ROCIS implementation
   Masaaki Saitow         : Open-shell DLPNO-CCSD energy and density
   Barbara Sandhoefer     : DKH picture change effects
   Kantharuban Sivalingam : CASSCF convergence/infrastructure, NEVPT2 and variants, FIC-MRCI
   Bernardo de Souza      : ESD, SOC TD-DFT
   Georgi Stoychev        : AutoAux, RI-MP2 NMR, DLPNO-MP2 response, X2C
   Van Anh Tran           : RI-MP2 g-tensors
   Willem Van den Heuvel  : Paramagnetic NMR
   Zikuan Wang            : NOTCH, Electric field optimization 
   Frank Wennmohs         : Technical directorship and infrastructure
   Hang Xu                : AUTO-CI-Response properties 


 We gratefully acknowledge several colleagues who have allowed us to
 interface, adapt or use parts of their codes:
   Stefan Grimme, W. Hujo, H. Kruse, P. Pracht,  : VdW corrections, initial TS optimization,
                  C. Bannwarth, S. Ehlert,         DFT functionals, gCP, sTDA/sTD-DF
                  L. Wittmann, M. Mueller
   Ed Valeev, F. Pavosevic, A. Kumar             : LibInt (2-el integral package), F12 methods
   Garnet Chan, S. Sharma, J. Yang, R. Olivares  : DMRG
   Ulf Ekstrom                                   : XCFun DFT Library
   Mihaly Kallay                                 : mrcc  (arbitrary order and MRCC methods)
   Frank Weinhold                                : gennbo (NPA and NBO analysis)
   Simon Mueller                                 : openCOSMO-RS
   Christopher J. Cramer and Donald G. Truhlar   : smd solvation model
   Lars Goerigk                                  : TD-DFT with DH, B97 family of functionals
   V. Asgeirsson, H. Jonsson                     : NEB implementation
   FAccTs GmbH                                   : IRC, NEB, NEB-TS, DLPNO-Multilevel, CI-OPT
                                                   MM, QMMM, 2- and 3-layer-ONIOM, Crystal-QMMM,
                                                   LR-CPCM, SF, NACMEs, symmetry and pop. for TD-DFT,
                                                   nearIR, NL-DFT gradient (VV10), updates on ESD,
                                                   ML-optimized integration grids, MBIS, APM,
                                                   GOAT, DOCKER, SOLVATOR, interface openCOSMO-RS
   S Lehtola, MJT Oliveira, MAL Marques          : LibXC Library
   Liviu Ungur et al                             : ANISO software


 Your calculation uses the libint2 library for the computation of 2-el integrals
 For citations please refer to: http://libint.valeyev.net

 Your ORCA version has been built with support for libXC version: 6.2.2
 For citations please refer to: https://libxc.gitlab.io

 This ORCA versions uses:
   CBLAS   interface :  Fast vector & matrix operations
   LAPACKE interface :  Fast linear algebra routines
   SCALAPACK package :  Parallel linear algebra routines
   Shared memory     :  Shared parallel matrices
   BLAS/LAPACK       :  OpenBLAS 0.3.27  USE64BITINT DYNAMIC_ARCH NO_AFFINITY Zen SINGLE_THREADED
        Core in use  :  Zen
   Copyright (c) 2011-2014, The OpenBLAS Project


NOTE: MaxCore=2000 MB was set to SCF,MP2,MDCI,CIPSI,MRCI and CIS
      => If you want to overwrite this, your respective input block should be placed after the MaxCore statement


***************************************
The coordinates will be read from file: OCTAN_c000.xyz
***************************************


Warning: RI is on but no J-basis has been assigned. Assigning Def2/J (nothing to worry about!)
================================================================================

----- Orbital basis set information -----
Your calculation utilizes the basis: def2-TZVP
   F. Weigend and R. Ahlrichs, Phys. Chem. Chem. Phys. 7, 3297 (2005).

----- AuxJ basis set information -----
Your calculation utilizes the auxiliary basis: def2/J
   F. Weigend, Phys. Chem. Chem. Phys. 8, 1057 (2006).

================================================================================
                                        WARNINGS
                       Please study these warnings very carefully!
================================================================================


WARNING: Geometry Optimization
  ===> : Switching off AutoStart
         For restart on a previous wavefunction, please use MOREAD



***************************************
The coordinates will be read from file: geo_opt_tzvp.xyz
***************************************


Warning: RI is on but no J-basis has been assigned. Assigning Def2/J (nothing to worry about!)
================================================================================

----- Orbital basis set information -----
Your calculation utilizes the basis: def2-TZVPD
   F. Weigend and R. Ahlrichs, Phys. Chem. Chem. Phys. 7, 3297 (2005).
   D. Rappoport and F. Furche, J. Chem. Phys. 133, 134105 (2010)
   D. Rappoport, J. Chem. Phys. 155, 124102 (2021).

----- AuxJ basis set information -----
Your calculation utilizes the auxiliary basis: def2/J
   F. Weigend, Phys. Chem. Chem. Phys. 8, 1057 (2006).

================================================================================
                                        WARNINGS
                       Please study these warnings very carefully!
================================================================================


================================================================================
                                       INPUT FILE
================================================================================
NAME = input.dat
|  1> %MaxCore 2000
|  2> 
|  3> %base "geo_opt_tzvp"
|  4> 
|  5> %cpcm
|  6> radius[1]  1.3
|  7> radius[2]  1.601
|  8> radius[5]  2.048
|  9> radius[6]  2.0
| 10> radius[7]  1.83
| 11> radius[8]  1.72
| 12> radius[9]  1.72
| 13> radius[10]  1.771
| 14> radius[13]  2.152
| 15> radius[14]  2.2
| 16> radius[15]  2.106
| 17> radius[16]  2.16
| 18> radius[17]  2.05
| 19> radius[18]  2.184
| 20> radius[22]  2.261
| 21> radius[26]  2.195
| 22> radius[27]  2.153
| 23> radius[31]  2.172
| 24> radius[32]  2.7
| 25> radius[33]  2.148
| 26> radius[34]  2.2
| 27> radius[35]  2.16
| 28> radius[36]  2.354
| 29> radius[49]  2.245
| 30> radius[50]  2.55
| 31> radius[51]  2.402
| 32> radius[53]  2.32
| 33> radius[54]  2.524
| 34> radius[80]  1.978
| 35> radius[82]  2.36
| 36> radius[86]  2.573
| 37> cut_area 0.03571064825863687
| 38> end
| 39> 
| 40> ! OPT CPCM BP86 def2-TZVP PAL64
| 41> 
| 42> * xyzfile 0 1 OCTAN_c000.xyz
| 43> 
| 44> $new_job
| 45> 
| 46> ! CPCM BP86 def2-TZVPD SP PAL64
| 47> 
| 48> %base "single_point_tzvpd"
| 49> 
| 50> * xyzfile 0 1 geo_opt_tzvp.xyz
| 51> 
| 52>                          ****END OF INPUT****
================================================================================


                 $$$$$$$$$$$$$$$$$$$$$$$$$$$$$$$$$$$$$$$$$$$$$$ 
                 $ THERE ARE  2 JOBS TO BE PROCESSED THIS RUN $
                 $$$$$$$$$$$$$$$$$$$$$$$$$$$$$$$$$$$$$$$$$$$$$$ 




                 $$$$$$$$$$$$$$$$  JOB NUMBER  1 $$$$$$$$$$$$$$


                       *****************************
                       * Geometry Optimization Run *
                       *****************************

Geometry optimization settings:
Update method            Update   .... BFGS
Choice of coordinates    CoordSys .... (2022) Redundant Internals
Initial Hessian          InHess   .... Almloef's Model
Max. no of cycles        MaxIter  .... 78

Convergence Tolerances:
Energy Change            TolE     ....  5.0000e-06 Eh
Max. Gradient            TolMAXG  ....  3.0000e-04 Eh/bohr
RMS Gradient             TolRMSG  ....  1.0000e-04 Eh/bohr
Max. Displacement        TolMAXD  ....  4.0000e-03 bohr
RMS Displacement         TolRMSD  ....  2.0000e-03 bohr
Strict Convergence                .... False

------------------------------------------------------------------------------
                        ORCA OPTIMIZATION COORDINATE SETUP
------------------------------------------------------------------------------

The optimization will be done in redundant internal coordinates (2022)
Making redundant internal coordinates   ...  (2022 redundants) done
Evaluating the initial hessian          ...  (Almloef) done
Evaluating the coordinates              ...  done
Calculating the B-matrix                .... done
Calculating the G-matrix                .... done
Diagonalizing the G-matrix              .... done
Small eigenvalue found = 5.250e-03
Small eigenvalue found = 2.516e-02
Small eigenvalue found = 2.743e-02
The first mode is                       ....   43
The number of degrees of freedom        ....   72

    -----------------------------------------------------------------
                    Redundant Internal Coordinates


    -----------------------------------------------------------------
         Definition                    Initial Value    Approx d2E/dq
    -----------------------------------------------------------------
      1. B(C   1,C   0)                  1.5323         0.370421   
      2. B(C   2,C   1)                  1.5335         0.368846   
      3. B(C   3,C   2)                  1.5332         0.369191   
      4. B(C   4,C   3)                  1.5335         0.368859   
      5. B(C   5,C   4)                  1.5332         0.369186   
      6. B(C   6,C   5)                  1.5335         0.368846   
      7. B(C   7,C   6)                  1.5323         0.370410   
      8. B(H   8,C   0)                  1.1002         0.346839   
      9. B(H   9,C   0)                  1.1013         0.345502   
     10. B(H  10,C   0)                  1.1013         0.345456   
     11. B(H  11,C   1)                  1.1037         0.342427   
     12. B(H  12,C   1)                  1.1037         0.342425   
     13. B(H  13,C   2)                  1.1049         0.340933   
     14. B(H  14,C   2)                  1.1049         0.340953   
     15. B(H  15,C   3)                  1.1047         0.341109   
     16. B(H  16,C   3)                  1.1047         0.341121   
     17. B(H  17,C   4)                  1.1047         0.341116   
     18. B(H  18,C   4)                  1.1047         0.341117   
     19. B(H  19,C   5)                  1.1049         0.340935   
     20. B(H  20,C   5)                  1.1049         0.340949   
     21. B(H  21,C   6)                  1.1037         0.342438   
     22. B(H  22,C   6)                  1.1037         0.342412   
     23. B(H  23,C   7)                  1.1013         0.345490   
     24. B(H  24,C   7)                  1.1002         0.346841   
     25. B(H  25,C   7)                  1.1013         0.345467   
     26. A(C   1,C   0,H   8)          111.5353         0.321881   
     27. A(H   8,C   0,H   9)          107.7106         0.287267   
     28. A(H   8,C   0,H  10)          107.6962         0.287261   
     29. A(C   1,C   0,H   9)          111.0630         0.321678   
     30. A(C   1,C   0,H  10)          111.0822         0.321671   
     31. A(H   9,C   0,H  10)          107.5720         0.287088   
     32. A(C   2,C   1,H  11)          109.1259         0.320984   
     33. A(C   0,C   1,C   2)          113.2381         0.362037   
     34. A(H  11,C   1,H  12)          106.1052         0.286293   
     35. A(C   0,C   1,H  11)          109.5026         0.321208   
     36. A(C   2,C   1,H  12)          109.1099         0.320984   
     37. A(C   0,C   1,H  12)          109.5096         0.321207   
     38. A(C   3,C   2,H  13)          109.2736         0.320803   
     39. A(H  13,C   2,H  14)          106.0964         0.285906   
     40. A(C   1,C   2,C   3)          113.6707         0.361832   
     41. A(C   1,C   2,H  14)          109.1398         0.320757   
     42. A(C   1,C   2,H  13)          109.1287         0.320754   
     43. A(C   3,C   2,H  14)          109.2544         0.320806   
     44. A(H  15,C   3,H  16)          106.1188         0.285951   
     45. A(C   4,C   3,H  16)          109.2009         0.320785   
     46. A(C   2,C   3,H  16)          109.2006         0.320832   
     47. A(C   4,C   3,H  15)          109.1940         0.320783   
     48. A(C   2,C   3,C   4)          113.6448         0.361834   
     49. A(C   2,C   3,H  15)          109.2081         0.320831   
     50. A(C   3,C   4,H  18)          109.1990         0.320785   
     51. A(C   5,C   4,H  17)          109.2129         0.320831   
     52. A(C   3,C   4,H  17)          109.2034         0.320784   
     53. A(C   3,C   4,C   5)          113.6382         0.361833   
     54. A(H  17,C   4,H  18)          106.1191         0.285951   
     55. A(C   5,C   4,H  18)          109.1950         0.320831   
     56. A(C   4,C   5,C   6)          113.6758         0.361831   
     57. A(H  19,C   5,H  20)          106.0950         0.285906   
     58. A(C   6,C   5,H  20)          109.1393         0.320757   
     59. A(C   4,C   5,H  20)          109.2589         0.320805   
     60. A(C   6,C   5,H  19)          109.1243         0.320755   
     61. A(C   4,C   5,H  19)          109.2699         0.320803   
     62. A(C   5,C   6,C   7)          113.2342         0.362035   
     63. A(H  21,C   6,H  22)          106.1049         0.286293   
     64. A(C   7,C   6,H  22)          109.5052         0.321204   
     65. A(C   5,C   6,H  22)          109.1098         0.320982   
     66. A(C   7,C   6,H  21)          109.5047         0.321208   
     67. A(C   5,C   6,H  21)          109.1327         0.320986   
     68. A(H  24,C   7,H  25)          107.7015         0.287262   
     69. A(H  23,C   7,H  25)          107.5714         0.287087   
     70. A(C   6,C   7,H  25)          111.0765         0.321671   
     71. A(H  23,C   7,H  24)          107.7072         0.287265   
     72. A(C   6,C   7,H  24)          111.5368         0.321880   
     73. A(C   6,C   7,H  23)          111.0659         0.321675   
     74. D(H  11,C   1,C   0,H   9)    -62.0899         0.010967   
     75. D(C   2,C   1,C   0,H   9)     59.9392         0.010967   
     76. D(H  11,C   1,C   0,H   8)     58.0712         0.010967   
     77. D(H  11,C   1,C   0,H  10)    178.2272         0.010967   
     78. D(C   2,C   1,C   0,H   8)   -179.8996         0.010967   
     79. D(C   2,C   1,C   0,H  10)    -59.7436         0.010967   
     80. D(C   3,C   2,C   1,C   0)   -179.8056         0.010880   
     81. D(H  13,C   2,C   1,C   0)     57.9517         0.010880   
     82. D(C   3,C   2,C   1,H  11)    -57.5663         0.010880   
     83. D(H  13,C   2,C   1,H  11)   -179.8089         0.010880   
     84. D(H  13,C   2,C   1,H  12)    -64.2851         0.010880   
     85. D(C   3,C   2,C   1,H  12)     57.9575         0.010880   
     86. D(C   4,C   3,C   2,H  13)    -57.7025         0.010899   
     87. D(C   4,C   3,C   2,H  14)     57.9723         0.010899   
     88. D(C   4,C   3,C   2,C   1)   -179.8650         0.010899   
     89. D(H  15,C   3,C   2,H  14)    -64.2084         0.010899   
     90. D(H  15,C   3,C   2,H  13)   -179.8832         0.010899   
     91. D(H  15,C   3,C   2,C   1)     57.9543         0.010899   
     92. D(H  17,C   4,C   3,H  16)    -64.2270         0.010881   
     93. D(H  17,C   4,C   3,H  15)   -179.8547         0.010881   
     94. D(H  17,C   4,C   3,C   2)     57.9568         0.010881   
     95. D(C   5,C   4,C   3,H  15)    -57.6577         0.010881   
     96. D(C   5,C   4,C   3,C   2)   -179.8461         0.010881   
     97. D(C   5,C   4,C   3,H  16)     57.9701         0.010881   
     98. D(H  19,C   5,C   4,H  18)    -64.2852         0.010899   
     99. D(H  19,C   5,C   4,H  17)   -179.9205         0.010899   
    100. D(H  19,C   5,C   4,C   3)     57.8877         0.010899   
    101. D(C   6,C   5,C   4,H  18)     57.8724         0.010899   
    102. D(C   6,C   5,C   4,H  17)    -57.7629         0.010899   
    103. D(C   6,C   5,C   4,C   3)   -179.9547         0.010899   
    104. D(C   7,C   6,C   5,C   4)   -179.9538         0.010880   
    105. D(H  21,C   6,C   5,H  20)    -64.4332         0.010880   
    106. D(H  21,C   6,C   5,H  19)   -179.9601         0.010880   
    107. D(H  21,C   6,C   5,C   4)     57.8018         0.010880   
    108. D(C   7,C   6,C   5,H  20)     57.8112         0.010880   
    109. D(C   7,C   6,C   5,H  19)    -57.7157         0.010880   
    110. D(H  24,C   7,C   6,H  22)     57.9679         0.010967   
    111. D(H  24,C   7,C   6,H  21)    -57.9875         0.010967   
    112. D(H  24,C   7,C   6,C   5)    179.9756         0.010967   
    113. D(H  23,C   7,C   6,H  22)    178.1278         0.010967   
    114. D(H  23,C   7,C   6,H  21)     62.1725         0.010967   
    115. D(H  23,C   7,C   6,C   5)    -59.8644         0.010967   
    -----------------------------------------------------------------

Number of atoms                         .... 26
Number of degrees of freedom            .... 115


         *************************************************************
         *                GEOMETRY OPTIMIZATION CYCLE   1            *
         *************************************************************
---------------------------------
CARTESIAN COORDINATES (ANGSTROEM)
---------------------------------
  C      0.921736    0.028347    0.006510
  C      2.453528    0.054642   -0.023331
  C      3.022075    0.855730   -1.200844
  C      4.554438    0.884596   -1.242957
  C      5.122335    1.688557   -2.418811
  C      6.654703    1.714212   -2.462910
  C      7.223542    2.518880   -3.637837
  C      8.755352    2.536904   -3.672821
  H      0.544358   -0.551392    0.862057
  H      0.515733   -0.425623   -0.911018
  H      0.509489    1.046622    0.084181
  H      2.838964   -0.978550   -0.069194
  H      2.833319    0.481468    0.920985
  H      2.638983    1.890975   -1.153027
  H      2.639544    0.430908   -2.146328
  H      4.936237   -0.150878   -1.292875
  H      4.936029    1.306878   -0.296113
  H      4.742712    2.724759   -2.367564
  H      4.738712    1.267831   -3.365531
  H      7.035365    0.678309   -2.515625
  H      7.039549    2.134159   -1.516185
  H      6.843946    3.553886   -3.584908
  H      6.838243    2.099434   -4.583240
  H      9.167082    2.982171   -2.753570
  H      9.133030    3.120539   -4.525579
  H      9.161557    1.516895   -3.758994

----------------------------
CARTESIAN COORDINATES (A.U.)
----------------------------
  NO LB      ZA    FRAG     MASS         X           Y           Z
   0 C     6.0000    0    12.011    1.741829    0.053567    0.012303
   1 C     6.0000    0    12.011    4.636496    0.103259   -0.044089
   2 C     6.0000    0    12.011    5.710893    1.617095   -2.269266
   3 C     6.0000    0    12.011    8.606640    1.671645   -2.348849
   4 C     6.0000    0    12.011    9.679811    3.190910   -4.570891
   5 C     6.0000    0    12.011   12.575567    3.239391   -4.654226
   6 C     6.0000    0    12.011   13.650515    4.759994   -6.874516
   7 C     6.0000    0    12.011   16.545217    4.794053   -6.940625
   8 H     1.0000    0     1.008    1.028688   -1.041980    1.629051
   9 H     1.0000    0     1.008    0.974594   -0.804311   -1.721574
  10 H     1.0000    0     1.008    0.962795    1.977829    0.159079
  11 H     1.0000    0     1.008    5.364864   -1.849191   -0.130758
  12 H     1.0000    0     1.008    5.354197    0.909843    1.740409
  13 H     1.0000    0     1.008    4.986955    3.573425   -2.178905
  14 H     1.0000    0     1.008    4.988015    0.814297   -4.055973
  15 H     1.0000    0     1.008    9.328135   -0.285117   -2.443181
  16 H     1.0000    0     1.008    9.327742    2.469641   -0.559572
  17 H     1.0000    0     1.008    8.962427    5.149049   -4.474048
  18 H     1.0000    0     1.008    8.954867    2.395854   -6.359931
  19 H     1.0000    0     1.008   13.294914    1.281819   -4.753842
  20 H     1.0000    0     1.008   13.302820    4.032976   -2.865174
  21 H     1.0000    0     1.008   12.933184    6.715872   -6.774495
  22 H     1.0000    0     1.008   12.922406    3.967355   -8.661068
  23 H     1.0000    0     1.008   17.323274    5.635486   -5.203494
  24 H     1.0000    0     1.008   17.258925    5.896965   -8.552104
  25 H     1.0000    0     1.008   17.312833    2.866517   -7.103468

--------------------------------
INTERNAL COORDINATES (ANGSTROEM)
--------------------------------
 C      0   0   0     0.000000000000     0.00000000     0.00000000
 C      1   0   0     1.532307977753     0.00000000     0.00000000
 C      2   1   0     1.533467780803   113.23809680     0.00000000
 C      3   2   1     1.533213438018   113.67074932   180.19439030
 C      4   3   2     1.533458097605   113.64478594   180.13495776
 C      5   4   3     1.533217166015   113.63822439   180.15386628
 C      6   5   4     1.533467287050   113.67581973   180.04529434
 C      7   6   5     1.532315884312   113.23423559   180.04620018
 H      1   2   3     1.100213868781   111.53534123   180.10038521
 H      1   2   3     1.101265012930   111.06299611    59.93924135
 H      1   2   3     1.101301398711   111.08222538   300.25636798
 H      2   1   3     1.103698561866   109.50256133   237.97082331
 H      2   1   3     1.103699864278   109.50964896   122.01380896
 H      3   2   1     1.104888522139   109.12872084    57.95172561
 H      3   2   1     1.104873122904   109.13982468   302.42046179
 H      4   3   2     1.104747998137   109.20813173    57.95430855
 H      4   3   2     1.104738464255   109.20059558   302.31893991
 H      5   4   3     1.104742298110   109.20339585    57.95680042
 H      5   4   3     1.104741970698   109.19903935   302.32453451
 H      6   5   4     1.104887527222   109.26993805    57.88770324
 H      6   5   4     1.104876214789   109.25891535   302.21410303
 H      7   6   5     1.103689835106   109.13272372    57.80176143
 H      7   6   5     1.103710182014   109.10978309   302.27467308
 H      8   7   6     1.101274249364   111.06593081   300.13557187
 H      8   7   6     1.100212339988   111.53681518   179.97564111
 H      8   7   6     1.101292347063   111.07652708    59.81576798

---------------------------
INTERNAL COORDINATES (A.U.)
---------------------------
 C      0   0   0     0.000000000000     0.00000000     0.00000000
 C      1   0   0     2.895642430776     0.00000000     0.00000000
 C      2   1   0     2.897834140910   113.23809680     0.00000000
 C      3   2   1     2.897353502702   113.67074932   180.19439030
 C      4   3   2     2.897815842317   113.64478594   180.13495776
 C      5   4   3     2.897360547595   113.63822439   180.15386628
 C      6   5   4     2.897833207851   113.67581973   180.04529434
 C      7   6   5     2.895657372007   113.23423559   180.04620018
 H      1   2   3     2.079102900739   111.53534123   180.10038521
 H      1   2   3     2.081089275307   111.06299611    59.93924135
 H      1   2   3     2.081158034469   111.08222538   300.25636798
 H      2   1   3     2.085688016330   109.50256133   237.97082331
 H      2   1   3     2.085690477532   109.50964896   122.01380896
 H      3   2   1     2.087936715356   109.12872084    57.95172561
 H      3   2   1     2.087907615019   109.13982468   302.42046179
 H      4   3   2     2.087671163477   109.20813173    57.95430855
 H      4   3   2     2.087653147050   109.20059558   302.31893991
 H      5   4   3     2.087660391987   109.20339585    57.95680042
 H      5   4   3     2.087659773268   109.19903935   302.32453451
 H      6   5   4     2.087934835236   109.26993805    57.88770324
 H      6   5   4     2.087913457834   109.25891535   302.21410303
 H      7   6   5     2.085671525144   109.13272372    57.80176143
 H      7   6   5     2.085709975228   109.10978309   302.27467308
 H      8   7   6     2.081106729637   111.06593081   300.13557187
 H      8   7   6     2.079100011738   111.53681518   179.97564111
 H      8   7   6     2.081140929333   111.07652708    59.81576798

---------------------
BASIS SET INFORMATION
---------------------
There are 2 groups of distinct atoms

 Group   1 Type C   : 11s6p2d1f contracted to 5s3p2d1f pattern {62111/411/11/1}
 Group   2 Type H   : 5s1p contracted to 3s1p pattern {311/1}

Atom   0C    basis set group =>   1
Atom   1C    basis set group =>   1
Atom   2C    basis set group =>   1
Atom   3C    basis set group =>   1
Atom   4C    basis set group =>   1
Atom   5C    basis set group =>   1
Atom   6C    basis set group =>   1
Atom   7C    basis set group =>   1
Atom   8H    basis set group =>   2
Atom   9H    basis set group =>   2
Atom  10H    basis set group =>   2
Atom  11H    basis set group =>   2
Atom  12H    basis set group =>   2
Atom  13H    basis set group =>   2
Atom  14H    basis set group =>   2
Atom  15H    basis set group =>   2
Atom  16H    basis set group =>   2
Atom  17H    basis set group =>   2
Atom  18H    basis set group =>   2
Atom  19H    basis set group =>   2
Atom  20H    basis set group =>   2
Atom  21H    basis set group =>   2
Atom  22H    basis set group =>   2
Atom  23H    basis set group =>   2
Atom  24H    basis set group =>   2
Atom  25H    basis set group =>   2
---------------------------------
AUXILIARY/J BASIS SET INFORMATION
---------------------------------
There are 2 groups of distinct atoms

 Group   1 Type C   : 12s5p4d2f1g contracted to 6s4p3d1f1g pattern {711111/2111/211/2/1}
 Group   2 Type H   : 5s2p1d contracted to 3s1p1d pattern {311/2/1}

Atom   0C    basis set group =>   1
Atom   1C    basis set group =>   1
Atom   2C    basis set group =>   1
Atom   3C    basis set group =>   1
Atom   4C    basis set group =>   1
Atom   5C    basis set group =>   1
Atom   6C    basis set group =>   1
Atom   7C    basis set group =>   1
Atom   8H    basis set group =>   2
Atom   9H    basis set group =>   2
Atom  10H    basis set group =>   2
Atom  11H    basis set group =>   2
Atom  12H    basis set group =>   2
Atom  13H    basis set group =>   2
Atom  14H    basis set group =>   2
Atom  15H    basis set group =>   2
Atom  16H    basis set group =>   2
Atom  17H    basis set group =>   2
Atom  18H    basis set group =>   2
Atom  19H    basis set group =>   2
Atom  20H    basis set group =>   2
Atom  21H    basis set group =>   2
Atom  22H    basis set group =>   2
Atom  23H    basis set group =>   2
Atom  24H    basis set group =>   2
Atom  25H    basis set group =>   2


           ************************************************************
           *        Program running with 64 parallel MPI-processes    *
           *              working on a common directory               *
           ************************************************************
------------------------------------------------------------------------------
                             ORCA STARTUP CALCULATIONS
                           -- RI-GTO INTEGRALS CHOSEN --
------------------------------------------------------------------------------
------------------------------------------------------------------------------
                   ___                                                        
                  /   \      - P O W E R E D   B Y -                         
                 /     \                                                     
                 |  |  |   _    _      __       _____    __    __             
                 |  |  |  | |  | |    /  \     |  _  \  |  |  /  |          
                  \  \/   | |  | |   /    \    | | | |  |  | /  /          
                 / \  \   | |__| |  /  /\  \   | |_| |  |  |/  /          
                |  |  |   |  __  | /  /__\  \  |    /   |      \           
                |  |  |   | |  | | |   __   |  |    \   |  |\   \          
                \     /   | |  | | |  |  |  |  | |\  \  |  | \   \       
                 \___/    |_|  |_| |__|  |__|  |_| \__\ |__|  \__/        
                                                                              
                      - O R C A' S   B I G   F R I E N D -                    
                                      &                                       
                       - I N T E G R A L  F E E D E R -                       
                                                                              
 v1 FN, 2020, v2 2021, v3 2022-2024                                           
------------------------------------------------------------------------------


----------------------
SHARK INTEGRAL PACKAGE
----------------------

Number of atoms                             ...     26
Number of basis functions                   ...    356
Number of shells                            ...    160
Maximum angular momentum                    ...      3
Integral batch strategy                     ... SHARK/LIBINT Hybrid
RI-J (if used) integral strategy            ... SPLIT-RIJ (Revised 2003 algorithm where possible)
Printlevel                                  ...      1
Contraction scheme used                     ... SEGMENTED contraction
Prescreening option                         ... SCHWARTZ
   Thresh                                   ... 2.500e-11
   Tcut                                     ... 2.500e-12
   Tpresel                                  ... 2.500e-12 
Coulomb Range Separation                    ... NOT USED
Exchange Range Separation                   ... NOT USED
Multipole approximations                    ... NOT USED
Finite Nucleus Model                        ... NOT USED
CABS basis                                  ... NOT available
Auxiliary Coulomb fitting basis             ... AVAILABLE
   # of basis functions in Aux-J            ...    590
   # of shells in Aux-J                     ...    210
   Maximum angular momentum in Aux-J        ...      4
Auxiliary J/K fitting basis                 ... NOT available
Auxiliary Correlation fitting basis         ... NOT available
Auxiliary 'external' fitting basis          ... NOT available

Checking pre-screening integrals            ... done (  0.0 sec) Dimension = 160
Check shell pair data                       ... done (  0.0 sec)
Shell pair information
Shell pair cut-off parameter TPreSel        ...   2.5e-12
Total number of shell pairs                 ...     12880
Shell pairs after pre-screening             ...     10319
Total number of primitive shell pairs       ...     36276
Primitive shell pairs kept                  ...     21849
          la=0 lb=0:   3591 shell pairs
          la=1 lb=0:   3172 shell pairs
          la=1 lb=1:    725 shell pairs
          la=2 lb=0:   1208 shell pairs
          la=2 lb=1:    542 shell pairs
          la=2 lb=2:    111 shell pairs
          la=3 lb=0:    584 shell pairs
          la=3 lb=1:    262 shell pairs
          la=3 lb=2:     98 shell pairs
          la=3 lb=3:     26 shell pairs

Calculating one electron integrals          ... done (  0.0 sec)
Calculating RI/J V-Matrix + Cholesky decomp.... done (  0.0 sec)
Calculating Nuclear repulsion               ... done (  0.0 sec) ENN=    372.870789140228 Eh

Diagonalization of the overlap matrix:
Smallest eigenvalue                        ... 7.332e-05
Time for diagonalization                   ...    0.014 sec
Threshold for overlap eigenvalues          ... 1.000e-07
Number of eigenvalues below threshold      ... 0
Time for construction of square roots      ...    0.007 sec
Total time needed                          ...    0.026 sec

-------------------
DFT GRID GENERATION
-------------------

General Integration Accuracy     IntAcc      ... 4.388
Radial Grid Type                 RadialGrid  ... OptM3 with GC (2021)
Angular Grid (max. ang.)         AngularGrid ... 4 (Lebedev-302)
Angular grid pruning method      GridPruning ... 4 (adaptive)
Weight generation scheme         WeightScheme... mBecke (2022)
Basis function cutoff            BFCut       ... 1.0000e-11
Integration weight cutoff        WCut        ... 1.0000e-14
Partially contracted basis set               ... off
Rotationally invariant grid construction     ... off
Angular grids for H and He will be reduced by one unit

Total number of grid points                  ...   105631
Total number of batches                      ...     1663
Average number of points per batch           ...       63
Average number of grid points per atom       ...     4063
Initializing property integral containers    ... done (  0.0 sec)

SHARK setup successfully completed in   1.0 seconds

Maximum memory used throughout the entire STARTUP-calculation: 31.0 MB


           ************************************************************
           *        Program running with 64 parallel MPI-processes    *
           *              working on a common directory               *
           ************************************************************
-------------------------------------------------------------------------------
                                 ORCA GUESS
                   Start orbitals & Density for SCF / CASSCF
-------------------------------------------------------------------------------

------------
SCF SETTINGS
------------
Hamiltonian:
 Density Functional     Method          .... DFT(GTOs)
 Exchange Functional    Exchange        .... B88
   X-Alpha parameter    XAlpha          ....  0.666667
   Becke's b parameter  XBeta           ....  0.004200
 Correlation Functional Correlation     .... P86
 LDA part of GGA corr.  LDAOpt          .... PW91-LDA
 Gradients option       PostSCFGGA      .... off
   NL short-range parameter             ....  4.400000
 RI-approximation to the Coulomb term is turned on
   Number of AuxJ basis functions       .... 590


General Settings:
 Integral files         IntName         .... geo_opt_tzvp
 Hartree-Fock type      HFTyp           .... RHF
 Total Charge           Charge          ....    0
 Multiplicity           Mult            ....    1
 Number of Electrons    NEL             ....   66
 Basis Dimension        Dim             ....  356
 Nuclear Repulsion      ENuc            ....    372.8707891402 Eh

Convergence Acceleration:
 AO-DIIS                CNVDIIS         .... on
   Start iteration      DIISMaxIt       ....    12
   Startup error        DIISStart       ....  0.200000
   # of expansion vecs  DIISMaxEq       ....     5
   Bias factor          DIISBfac        ....   1.050
   Max. coefficient     DIISMaxC        ....  10.000
 MO-DIIS                CNVKDIIS        .... off
 Trust-Rad. Augm. Hess. CNVTRAH         .... auto
   Auto Start mean grad. ratio tolernc. ....  1.125000
   Auto Start start iteration           ....    50
   Auto Start num. interpolation iter.  ....    10
   Max. Number of Micro iterations      ....    24
   Max. Number of Macro iterations      .... Maxiter - #DIIS iter
   Number of Davidson start vectors     ....     2
   Converg. threshold    (grad. norm)   ....   1.000e-05
   Grad. Scal. Fac. for Micro threshold ....   0.100
   Minimum threshold for Micro iter.    ....   1.000e-02
   NR start threshold (gradient norm)   ....   1.000e-04
   Initial trust radius                 ....   0.400
   Minimum AH scaling param. (alpha)    ....   1.000
   Maximum AH scaling param. (alpha)    .... 1000.000
   Quad. conv. algorithm                .... NR
   White noise on init. David. guess    .... on
   Maximum white noise                  ....   0.010
   Pseudo random numbers                .... off
   Inactive MOs                         .... canonical
   Orbital update algorithm             .... Taylor
   Preconditioner                       .... Diag
   Full preconditioner red. dimension   ....   250
 SOSCF                  CNVSOSCF        .... on
   Start iteration      SOSCFMaxIt      ....   150
   Startup grad/error   SOSCFStart      ....  0.003300
   Hessian update       SOSCFHessUp     .... L-BFGS
 Level Shifting         CNVShift        .... on
   Level shift para.    LevelShift      ....    0.2500
   Turn off err/grad.   ShiftErr        ....    0.0010
 Zerner damping         CNVZerner       .... off
 Static damping         CNVDamp         .... on
   Fraction old density DampFac         ....    0.7000
   Max. Damping (<1)    DampMax         ....    0.9800
   Min. Damping (>=0)   DampMin         ....    0.0000
   Turn off err/grad.   DampErr         ....    0.1000

SCF Procedure:
 Maximum # iterations   MaxIter         ....   125
 SCF integral mode      SCFMode         .... Direct
   Integral package                     .... SHARK and LIBINT hybrid scheme
 Reset frequency        DirectResetFreq ....    20
 Integral Threshold     Thresh          ....  2.500e-11 Eh
 Primitive CutOff       TCut            ....  2.500e-12 Eh

Convergence Tolerance:
 Convergence Check Mode ConvCheckMode   .... Total+1el-Energy
 Convergence forced     ConvForced      .... 0
 Energy Change          TolE            ....  1.000e-08 Eh
 1-El. energy change                    ....  1.000e-05 Eh
 Orbital Gradient       TolG            ....  1.000e-05
 Orbital Rotation angle TolX            ....  1.000e-05
 DIIS Error             TolErr          ....  5.000e-07

------------------------------
INITIAL GUESS: MODEL POTENTIAL
------------------------------
Loading Hartree-Fock densities                     ... done
Calculating cut-offs                               ... done
Initializing the effective Hamiltonian             ... done
Setting up the integral package (SHARK)            ... done
Starting the Coulomb interaction                   ... done (   0.0 sec)
Making the grid                                    ... done (   0.4 sec)
Mapping shells                                     ... done
Starting the XC term evaluation                    ... done (   0.1 sec)
  promolecular density results
     # of electrons  =     65.992206439
     EX              =    -46.459117853
     EC              =     -2.317376792
     EX+EC           =    -48.776494645
Transforming the Hamiltonian                       ... done (   0.0 sec)
Diagonalizing the Hamiltonian                      ... done (   0.0 sec)
Back transforming the eigenvectors                 ... done (   0.0 sec)
Now organizing SCF variables                       ... done
                      ------------------
                      INITIAL GUESS DONE (   0.5 sec)
                      ------------------
             **** ENERGY FILE WAS UPDATED (geo_opt_tzvp.en.tmp) ****
Finished Guess after   3.5 sec
Maximum memory used throughout the entire GUESS-calculation: 20.5 MB


           ************************************************************
           *        Program running with 64 parallel MPI-processes    *
           *              working on a common directory               *
           ************************************************************

-------------------------------------------------------------------------------------------
                                      ORCA LEAN-SCF
                              memory conserving SCF solver
-------------------------------------------------------------------------------------------

--------------------
CPCM SOLVATION MODEL
--------------------
CPCM parameters:
  Epsilon                                         ...     INFINITY
  Refrac                                          ...       1.3300
  Rsolv                                           ...       1.3000
  Surface type                                    ... GAUSSIAN VDW
  Discretization scheme                           ... Constant charge density
    Threshold for H atoms                         ...       5.0000 (charges/Ang^2)
    Threshold for non-H atoms                     ...       5.0000 (charges/Ang^2)
  Epsilon function type                           ...         CPCM
Solvent:                                          ... CONDUCTOR
Radii:
  Scheme                                          ... Element-dependent radii
  Radius for C  used is    3.7795 Bohr (=   2.0000 Ang.)
  Radius for H  used is    2.4566 Bohr (=   1.3000 Ang.)
Calculating surface                               ...        done! (  0.0s)
Cavity surface points                             ...         1498
Cavity Volume                                     ...    1207.9370
Cavity Surface-area                               ...     730.1867
Calculating surface distance matrix               ...        done! (  0.0s)
Performing Cholesky decomposition & store         ...        done! (  0.3s)
Overall time for CPCM initialization              ...                 0.3s

----------------------------------------D-I-I-S--------------------------------------------
Iteration    Energy (Eh)           Delta-E    RMSDP     MaxDP     DIISErr   Damp  Time(sec)
-------------------------------------------------------------------------------------------
               ***  Starting incremental Fock matrix formation  ***
    1    -315.5087525721939983     0.00e+00  1.27e-03  3.47e-02  1.80e-01  0.700   1.5
    2    -315.6561820007262895    -1.47e-01  9.16e-04  2.12e-02  8.63e-02  0.700   1.5
                               ***Turning on AO-DIIS***
    3    -315.7083880552844448    -5.22e-02  3.97e-04  7.82e-03  2.44e-02  0.700   1.5
    4    -315.7380933927526030    -2.97e-02  6.12e-04  1.40e-02  9.57e-03  0.000   1.5
    5    -315.8055186714024103    -6.74e-02  1.96e-04  5.43e-03  1.04e-02  0.000   1.4
                              *** Initializing SOSCF ***
---------------------------------------S-O-S-C-F--------------------------------------
Iteration    Energy (Eh)           Delta-E    RMSDP     MaxDP     MaxGrad    Time(sec)
--------------------------------------------------------------------------------------
    6    -315.8065654248370038    -1.05e-03  1.03e-04  3.37e-03  2.64e-03     1.5
               *** Restarting incremental Fock matrix formation ***
    7    -315.8066558066039988    -9.04e-05  8.64e-05  2.78e-03  5.29e-04     1.4
    8    -315.8066553815816633     4.25e-07  1.49e-05  4.40e-04  4.08e-04     1.6
    9    -315.8066643263059632    -8.94e-06  7.88e-06  2.56e-04  3.95e-05     1.4
   10    -315.8066644304449255    -1.04e-07  1.48e-06  4.08e-05  1.74e-05     1.4
   11    -315.8066644466691741    -1.62e-08  7.89e-07  2.65e-05  7.68e-06     1.4
   12    -315.8066644419749309     4.69e-09  3.94e-07  1.25e-05  6.82e-06     1.4
                 **** Energy Check signals convergence ****

               *****************************************************
               *                     SUCCESS                       *
               *           SCF CONVERGED AFTER  12 CYCLES          *
               *****************************************************

             **** ENERGY FILE WAS UPDATED (geo_opt_tzvp.en.tmp) ****

----------------
TOTAL SCF ENERGY
----------------

Total Energy       :       -315.80666444197493 Eh           -8593.53623 eV

Components:
Nuclear Repulsion  :        372.87078914022811 Eh           10146.33000 eV
Electronic Energy  :       -688.67582431092467 Eh          -18739.82189 eV
One Electron Energy:      -1161.97085844571507 Eh          -31618.83453 eV
Two Electron Energy:        473.29503413479040 Eh           12879.01264 eV
CPCM Dielectric    :         -0.00162927127838 Eh              -0.04433 eV

Virial components:
Potential Energy   :       -629.77749926531715 Eh          -17137.11699 eV
Kinetic Energy     :        313.97083482334227 Eh            8543.58076 eV
Virial Ratio       :          2.00584713423992

DFT components:
N(Alpha)           :       33.000033827904 electrons
N(Beta)            :       33.000033827904 electrons
N(Total)           :       66.000067655807 electrons
E(X)               :      -47.867354145365 Eh       
E(C)               :       -2.305398876240 Eh       
E(XC)              :      -50.172753021605 Eh       

CPCM Solvation Model Properties:
Surface-charge          :         -0.04266013946772
Corrected charge        :          0.00000000000000
Outlying charge corr.   :          0.00012152509896 Eh               0.00331 eV
Free-energy (cav+disp)  :  This term is not implemented in the current solvation scheme

---------------
SCF CONVERGENCE
---------------

  Last Energy change         ...   -4.6942e-09  Tolerance :   1.0000e-08
  Last MAX-Density change    ...    1.2454e-05  Tolerance :   1.0000e-07
  Last RMS-Density change    ...    3.9395e-07  Tolerance :   5.0000e-09
  Last DIIS Error            ...    2.6370e-03  Tolerance :   5.0000e-07
  Last Orbital Gradient      ...    6.8224e-06  Tolerance :   1.0000e-05
  Last Orbital Rotation      ...    8.2747e-06  Tolerance :   1.0000e-05


----------------
ORBITAL ENERGIES
----------------

  NO   OCC          E(Eh)            E(eV) 
   0   2.0000      -9.885490      -268.9979 
   1   2.0000      -9.885490      -268.9979 
   2   2.0000      -9.883267      -268.9374 
   3   2.0000      -9.883187      -268.9352 
   4   2.0000      -9.883078      -268.9322 
   5   2.0000      -9.883063      -268.9318 
   6   2.0000      -9.879101      -268.8240 
   7   2.0000      -9.879101      -268.8240 
   8   2.0000      -0.732080       -19.9209 
   9   2.0000      -0.710264       -19.3273 
  10   2.0000      -0.674792       -18.3620 
  11   2.0000      -0.628295       -17.0968 
  12   2.0000      -0.575658       -15.6644 
  13   2.0000      -0.528241       -14.3742 
  14   2.0000      -0.512528       -13.9466 
  15   2.0000      -0.508477       -13.8364 
  16   2.0000      -0.429238       -11.6802 
  17   2.0000      -0.409579       -11.1452 
  18   2.0000      -0.387789       -10.5523 
  19   2.0000      -0.379471       -10.3259 
  20   2.0000      -0.370406       -10.0792 
  21   2.0000      -0.364952        -9.9309 
  22   2.0000      -0.343931        -9.3588 
  23   2.0000      -0.337838        -9.1930 
  24   2.0000      -0.311602        -8.4791 
  25   2.0000      -0.310318        -8.4442 
  26   2.0000      -0.307043        -8.3551 
  27   2.0000      -0.287318        -7.8183 
  28   2.0000      -0.286376        -7.7927 
  29   2.0000      -0.280126        -7.6226 
  30   2.0000      -0.275559        -7.4983 
  31   2.0000      -0.274176        -7.4607 
  32   2.0000      -0.262270        -7.1367 
  33   0.0000       0.024653         0.6708 
  34   0.0000       0.032705         0.8900 
  35   0.0000       0.045830         1.2471 
  36   0.0000       0.053196         1.4475 
  37   0.0000       0.053290         1.4501 
  38   0.0000       0.071160         1.9364 
  39   0.0000       0.075118         2.0441 
  40   0.0000       0.077658         2.1132 
  41   0.0000       0.099451         2.7062 
  42   0.0000       0.102978         2.8022 
  43   0.0000       0.113796         3.0966 
*Only the first 10 virtual orbitals were printed.

                    ********************************
                    * MULLIKEN POPULATION ANALYSIS *
                    ********************************

-----------------------
MULLIKEN ATOMIC CHARGES
-----------------------
   0 C :   -0.381856
   1 C :   -0.173224
   2 C :   -0.208834
   3 C :   -0.195036
   4 C :   -0.195007
   5 C :   -0.208880
   6 C :   -0.173208
   7 C :   -0.381865
   8 H :    0.128597
   9 H :    0.119735
  10 H :    0.119662
  11 H :    0.099882
  12 H :    0.099879
  13 H :    0.097710
  14 H :    0.097597
  15 H :    0.098010
  16 H :    0.097877
  17 H :    0.098035
  18 H :    0.097847
  19 H :    0.097742
  20 H :    0.097581
  21 H :    0.099967
  22 H :    0.099793
  23 H :    0.119679
  24 H :    0.128602
  25 H :    0.119716
Sum of atomic charges:    0.0000000

--------------------------------
MULLIKEN REDUCED ORBITAL CHARGES
--------------------------------
  0 C s       :     3.298339  s :     3.298339
      pz      :     1.054682  p :     3.032916
      px      :     0.925611
      py      :     1.052623
      dz2     :     0.003341  d :     0.047354
      dxz     :     0.018664
      dyz     :     0.002216
      dx2y2   :     0.003456
      dxy     :     0.019677
      f0      :     0.000346  f :     0.003247
      f+1     :     0.000337
      f-1     :     0.000608
      f+2     :     0.000560
      f-2     :    -0.000102
      f+3     :     0.000653
      f-3     :     0.000846

  1 C s       :     3.224741  s :     3.224741
      pz      :     0.949605  p :     2.851653
      px      :     0.922384
      py      :     0.979663
      dz2     :     0.019802  d :     0.091377
      dxz     :     0.026455
      dyz     :     0.006395
      dx2y2   :     0.015761
      dxy     :     0.022964
      f0      :     0.000936  f :     0.005453
      f+1     :     0.000596
      f-1     :     0.000859
      f+2     :     0.001075
      f-2     :     0.000188
      f+3     :     0.000731
      f-3     :     0.001069

  2 C s       :     3.231677  s :     3.231677
      pz      :     0.966123  p :     2.884470
      px      :     0.926500
      py      :     0.991847
      dz2     :     0.020530  d :     0.087269
      dxz     :     0.023696
      dyz     :     0.006453
      dx2y2   :     0.015242
      dxy     :     0.021348
      f0      :     0.000934  f :     0.005418
      f+1     :     0.000602
      f-1     :     0.000847
      f+2     :     0.001049
      f-2     :     0.000215
      f+3     :     0.000727
      f-3     :     0.001044

  3 C s       :     3.220862  s :     3.220862
      pz      :     0.963701  p :     2.881037
      px      :     0.927427
      py      :     0.989909
      dz2     :     0.020724  d :     0.087690
      dxz     :     0.023748
      dyz     :     0.006288
      dx2y2   :     0.015581
      dxy     :     0.021349
      f0      :     0.000936  f :     0.005446
      f+1     :     0.000609
      f-1     :     0.000849
      f+2     :     0.001056
      f-2     :     0.000218
      f+3     :     0.000729
      f-3     :     0.001051

  4 C s       :     3.220853  s :     3.220853
      pz      :     0.963779  p :     2.881020
      px      :     0.927415
      py      :     0.989825
      dz2     :     0.020743  d :     0.087688
      dxz     :     0.023770
      dyz     :     0.006256
      dx2y2   :     0.015597
      dxy     :     0.021321
      f0      :     0.000936  f :     0.005446
      f+1     :     0.000611
      f-1     :     0.000846
      f+2     :     0.001056
      f-2     :     0.000218
      f+3     :     0.000727
      f-3     :     0.001053

  5 C s       :     3.231697  s :     3.231697
      pz      :     0.966302  p :     2.884496
      px      :     0.926506
      py      :     0.991688
      dz2     :     0.020538  d :     0.087270
      dxz     :     0.023742
      dyz     :     0.006325
      dx2y2   :     0.015366
      dxy     :     0.021299
      f0      :     0.000932  f :     0.005418
      f+1     :     0.000604
      f-1     :     0.000843
      f+2     :     0.001051
      f-2     :     0.000214
      f+3     :     0.000726
      f-3     :     0.001047

  6 C s       :     3.224727  s :     3.224727
      pz      :     0.949809  p :     2.851652
      px      :     0.922371
      py      :     0.979473
      dz2     :     0.019846  d :     0.091375
      dxz     :     0.026527
      dyz     :     0.006219
      dx2y2   :     0.015900
      dxy     :     0.022883
      f0      :     0.000933  f :     0.005453
      f+1     :     0.000600
      f-1     :     0.000852
      f+2     :     0.001077
      f-2     :     0.000188
      f+3     :     0.000726
      f-3     :     0.001076

  7 C s       :     3.298348  s :     3.298348
      pz      :     1.054611  p :     3.032917
      px      :     0.925611
      py      :     1.052695
      dz2     :     0.003315  d :     0.047353
      dxz     :     0.018754
      dyz     :     0.002154
      dx2y2   :     0.003543
      dxy     :     0.019586
      f0      :     0.000347  f :     0.003247
      f+1     :     0.000343
      f-1     :     0.000597
      f+2     :     0.000565
      f-2     :    -0.000102
      f+3     :     0.000647
      f-3     :     0.000850

  8 H s       :     0.850532  s :     0.850532
      pz      :     0.008729  p :     0.020870
      px      :     0.005686
      py      :     0.006455

  9 H s       :     0.859612  s :     0.859612
      pz      :     0.009264  p :     0.020653
      px      :     0.005710
      py      :     0.005679

 10 H s       :     0.859684  s :     0.859684
      pz      :     0.004534  p :     0.020654
      px      :     0.005745
      py      :     0.010375

 11 H s       :     0.879214  s :     0.879214
      pz      :     0.004418  p :     0.020905
      px      :     0.005489
      py      :     0.010998

 12 H s       :     0.879222  s :     0.879222
      pz      :     0.010130  p :     0.020899
      px      :     0.005461
      py      :     0.005308

 13 H s       :     0.881440  s :     0.881440
      pz      :     0.004414  p :     0.020850
      px      :     0.005445
      py      :     0.010991

 14 H s       :     0.881556  s :     0.881556
      pz      :     0.010123  p :     0.020847
      px      :     0.005441
      py      :     0.005283

 15 H s       :     0.881102  s :     0.881102
      pz      :     0.004422  p :     0.020889
      px      :     0.005465
      py      :     0.011002

 16 H s       :     0.881238  s :     0.881238
      pz      :     0.010141  p :     0.020885
      px      :     0.005465
      py      :     0.005279

 17 H s       :     0.881077  s :     0.881077
      pz      :     0.004421  p :     0.020888
      px      :     0.005455
      py      :     0.011013

 18 H s       :     0.881268  s :     0.881268
      pz      :     0.010140  p :     0.020885
      px      :     0.005474
      py      :     0.005271

 19 H s       :     0.881408  s :     0.881408
      pz      :     0.004414  p :     0.020849
      px      :     0.005432
      py      :     0.011003

 20 H s       :     0.881572  s :     0.881572
      pz      :     0.010134  p :     0.020847
      px      :     0.005453
      py      :     0.005260

 21 H s       :     0.879129  s :     0.879129
      pz      :     0.004417  p :     0.020904
      px      :     0.005460
      py      :     0.011027

 22 H s       :     0.879306  s :     0.879306
      pz      :     0.010139  p :     0.020900
      px      :     0.005488
      py      :     0.005273

 23 H s       :     0.859668  s :     0.859668
      pz      :     0.009280  p :     0.020654
      px      :     0.005741
      py      :     0.005632

 24 H s       :     0.850528  s :     0.850528
      pz      :     0.008704  p :     0.020870
      px      :     0.005688
      py      :     0.006479

 25 H s       :     0.859631  s :     0.859631
      pz      :     0.004543  p :     0.020653
      px      :     0.005712
      py      :     0.010399



                     *******************************
                     * LOEWDIN POPULATION ANALYSIS *
                     *******************************

----------------------
LOEWDIN ATOMIC CHARGES
----------------------
   0 C :   -0.328323
   1 C :   -0.302642
   2 C :   -0.277744
   3 C :   -0.275058
   4 C :   -0.275054
   5 C :   -0.277749
   6 C :   -0.302641
   7 C :   -0.328324
   8 H :    0.121197
   9 H :    0.121051
  10 H :    0.121059
  11 H :    0.135420
  12 H :    0.135396
  13 H :    0.137297
  14 H :    0.137268
  15 H :    0.137555
  16 H :    0.137527
  17 H :    0.137544
  18 H :    0.137530
  19 H :    0.137301
  20 H :    0.137271
  21 H :    0.135410
  22 H :    0.135402
  23 H :    0.121052
  24 H :    0.121195
  25 H :    0.121060

-------------------------------
LOEWDIN REDUCED ORBITAL CHARGES
-------------------------------
  0 C s       :     2.844894  s :     2.844894
      pz      :     1.074737  p :     3.199852
      px      :     1.048997
      py      :     1.076119
      dz2     :     0.034503  d :     0.259264
      dxz     :     0.073660
      dyz     :     0.028454
      dx2y2   :     0.047389
      dxy     :     0.075258
      f0      :     0.002231  f :     0.024312
      f+1     :     0.003503
      f-1     :     0.002928
      f+2     :     0.003625
      f-2     :     0.002422
      f+3     :     0.004115
      f-3     :     0.005489

  1 C s       :     2.791657  s :     2.791657
      pz      :     1.024063  p :     3.073461
      px      :     1.021783
      py      :     1.027616
      dz2     :     0.091185  d :     0.399530
      dxz     :     0.092486
      dyz     :     0.046860
      dx2y2   :     0.086494
      dxy     :     0.082505
      f0      :     0.005285  f :     0.037993
      f+1     :     0.005409
      f-1     :     0.005057
      f+2     :     0.006654
      f-2     :     0.004186
      f+3     :     0.004920
      f-3     :     0.006482

  2 C s       :     2.788721  s :     2.788721
      pz      :     1.021080  p :     3.055031
      px      :     1.009128
      py      :     1.024823
      dz2     :     0.091022  d :     0.396238
      dxz     :     0.091416
      dyz     :     0.047506
      dx2y2   :     0.084895
      dxy     :     0.081400
      f0      :     0.005295  f :     0.037754
      f+1     :     0.005447
      f-1     :     0.005026
      f+2     :     0.006506
      f-2     :     0.004163
      f+3     :     0.004878
      f-3     :     0.006440

  3 C s       :     2.787435  s :     2.787435
      pz      :     1.020313  p :     3.054112
      px      :     1.009175
      py      :     1.024625
      dz2     :     0.091192  d :     0.395770
      dxz     :     0.091123
      dyz     :     0.047160
      dx2y2   :     0.085104
      dxy     :     0.081191
      f0      :     0.005275  f :     0.037741
      f+1     :     0.005447
      f-1     :     0.005027
      f+2     :     0.006502
      f-2     :     0.004153
      f+3     :     0.004889
      f-3     :     0.006448

  4 C s       :     2.787437  s :     2.787437
      pz      :     1.020335  p :     3.054114
      px      :     1.009173
      py      :     1.024606
      dz2     :     0.091161  d :     0.395762
      dxz     :     0.091306
      dyz     :     0.047028
      dx2y2   :     0.085277
      dxy     :     0.080989
      f0      :     0.005275  f :     0.037741
      f+1     :     0.005453
      f-1     :     0.005021
      f+2     :     0.006493
      f-2     :     0.004161
      f+3     :     0.004873
      f-3     :     0.006465

  5 C s       :     2.788720  s :     2.788720
      pz      :     1.021071  p :     3.055032
      px      :     1.009122
      py      :     1.024838
      dz2     :     0.091069  d :     0.396244
      dxz     :     0.091569
      dyz     :     0.047080
      dx2y2   :     0.085281
      dxy     :     0.081245
      f0      :     0.005281  f :     0.037754
      f+1     :     0.005449
      f-1     :     0.005015
      f+2     :     0.006505
      f-2     :     0.004167
      f+3     :     0.004870
      f-3     :     0.006466

  6 C s       :     2.791660  s :     2.791660
      pz      :     1.024085  p :     3.073462
      px      :     1.021778
      py      :     1.027600
      dz2     :     0.091206  d :     0.399525
      dxz     :     0.092913
      dyz     :     0.046222
      dx2y2   :     0.087133
      dxy     :     0.082050
      f0      :     0.005271  f :     0.037993
      f+1     :     0.005422
      f-1     :     0.005037
      f+2     :     0.006636
      f-2     :     0.004205
      f+3     :     0.004886
      f-3     :     0.006536

  7 C s       :     2.844896  s :     2.844896
      pz      :     1.074716  p :     3.199851
      px      :     1.048991
      py      :     1.076144
      dz2     :     0.034391  d :     0.259264
      dxz     :     0.074098
      dyz     :     0.028160
      dx2y2   :     0.047797
      dxy     :     0.074819
      f0      :     0.002242  f :     0.024312
      f+1     :     0.003518
      f-1     :     0.002899
      f+2     :     0.003606
      f-2     :     0.002443
      f+3     :     0.004078
      f-3     :     0.005526

  8 H s       :     0.818519  s :     0.818519
      pz      :     0.026064  p :     0.060284
      px      :     0.014996
      py      :     0.019224

  9 H s       :     0.818815  s :     0.818815
      pz      :     0.028073  p :     0.060133
      px      :     0.015241
      py      :     0.016819

 10 H s       :     0.818813  s :     0.818813
      pz      :     0.013400  p :     0.060128
      px      :     0.015322
      py      :     0.031406

 11 H s       :     0.806901  s :     0.806901
      pz      :     0.012916  p :     0.057680
      px      :     0.014790
      py      :     0.029974

 12 H s       :     0.806924  s :     0.806924
      pz      :     0.026862  p :     0.057680
      px      :     0.014723
      py      :     0.016094

 13 H s       :     0.805041  s :     0.805041
      pz      :     0.012860  p :     0.057662
      px      :     0.014726
      py      :     0.030076

 14 H s       :     0.805068  s :     0.805068
      pz      :     0.027024  p :     0.057664
      px      :     0.014722
      py      :     0.015918

 15 H s       :     0.804795  s :     0.804795
      pz      :     0.012847  p :     0.057650
      px      :     0.014772
      py      :     0.030031

 16 H s       :     0.804819  s :     0.804819
      pz      :     0.026988  p :     0.057654
      px      :     0.014772
      py      :     0.015894

 17 H s       :     0.804804  s :     0.804804
      pz      :     0.012850  p :     0.057652
      px      :     0.014746
      py      :     0.030055

 18 H s       :     0.804817  s :     0.804817
      pz      :     0.026983  p :     0.057653
      px      :     0.014797
      py      :     0.015873

 19 H s       :     0.805038  s :     0.805038
      pz      :     0.012870  p :     0.057661
      px      :     0.014697
      py      :     0.030095

 20 H s       :     0.805065  s :     0.805065
      pz      :     0.027064  p :     0.057665
      px      :     0.014750
      py      :     0.015850

 21 H s       :     0.806909  s :     0.806909
      pz      :     0.012932  p :     0.057681
      px      :     0.014720
      py      :     0.030029

 22 H s       :     0.806920  s :     0.806920
      pz      :     0.026898  p :     0.057678
      px      :     0.014789
      py      :     0.015991

 23 H s       :     0.818816  s :     0.818816
      pz      :     0.028129  p :     0.060132
      px      :     0.015318
      py      :     0.016686

 24 H s       :     0.818521  s :     0.818521
      pz      :     0.025980  p :     0.060284
      px      :     0.015000
      py      :     0.019304

 25 H s       :     0.818811  s :     0.818811
      pz      :     0.013422  p :     0.060129
      px      :     0.015241
      py      :     0.031466



                      *****************************
                      * MAYER POPULATION ANALYSIS *
                      *****************************

  NA   - Mulliken gross atomic population
  ZA   - Total nuclear charge
  QA   - Mulliken gross atomic charge
  VA   - Mayer's total valence
  BVA  - Mayer's bonded valence
  FA   - Mayer's free valence

  ATOM       NA         ZA         QA         VA         BVA        FA
  0 C      6.3819     6.0000    -0.3819     3.8889     3.8889    -0.0000
  1 C      6.1732     6.0000    -0.1732     3.8741     3.8741     0.0000
  2 C      6.2088     6.0000    -0.2088     3.9004     3.9004     0.0000
  3 C      6.1950     6.0000    -0.1950     3.9214     3.9214     0.0000
  4 C      6.1950     6.0000    -0.1950     3.9214     3.9214     0.0000
  5 C      6.2089     6.0000    -0.2089     3.9004     3.9004     0.0000
  6 C      6.1732     6.0000    -0.1732     3.8741     3.8741     0.0000
  7 C      6.3819     6.0000    -0.3819     3.8889     3.8889     0.0000
  8 H      0.8714     1.0000     0.1286     0.9641     0.9641    -0.0000
  9 H      0.8803     1.0000     0.1197     0.9676     0.9676    -0.0000
 10 H      0.8803     1.0000     0.1197     0.9676     0.9676    -0.0000
 11 H      0.9001     1.0000     0.0999     0.9643     0.9643    -0.0000
 12 H      0.9001     1.0000     0.0999     0.9643     0.9643    -0.0000
 13 H      0.9023     1.0000     0.0977     0.9672     0.9672     0.0000
 14 H      0.9024     1.0000     0.0976     0.9673     0.9673     0.0000
 15 H      0.9020     1.0000     0.0980     0.9685     0.9685     0.0000
 16 H      0.9021     1.0000     0.0979     0.9685     0.9685     0.0000
 17 H      0.9020     1.0000     0.0980     0.9685     0.9685    -0.0000
 18 H      0.9022     1.0000     0.0978     0.9685     0.9685    -0.0000
 19 H      0.9023     1.0000     0.0977     0.9673     0.9673     0.0000
 20 H      0.9024     1.0000     0.0976     0.9673     0.9673     0.0000
 21 H      0.9000     1.0000     0.1000     0.9643     0.9643     0.0000
 22 H      0.9002     1.0000     0.0998     0.9643     0.9643     0.0000
 23 H      0.8803     1.0000     0.1197     0.9676     0.9676     0.0000
 24 H      0.8714     1.0000     0.1286     0.9641     0.9641     0.0000
 25 H      0.8803     1.0000     0.1197     0.9676     0.9676     0.0000

  Mayer bond orders larger than 0.100000
B(  0-C ,  1-C ) :   0.9786 B(  0-C ,  8-H ) :   0.9695 B(  0-C ,  9-H ) :   0.9680 
B(  0-C , 10-H ) :   0.9680 B(  1-C ,  2-C ) :   0.9915 B(  1-C , 11-H ) :   0.9564 
B(  1-C , 12-H ) :   0.9562 B(  2-C ,  3-C ) :   1.0004 B(  2-C , 13-H ) :   0.9514 
B(  2-C , 14-H ) :   0.9514 B(  3-C ,  4-C ) :   1.0025 B(  3-C , 15-H ) :   0.9518 
B(  3-C , 16-H ) :   0.9516 B(  4-C ,  5-C ) :   1.0003 B(  4-C , 17-H ) :   0.9518 
B(  4-C , 18-H ) :   0.9516 B(  5-C ,  6-C ) :   0.9915 B(  5-C , 19-H ) :   0.9515 
B(  5-C , 20-H ) :   0.9514 B(  6-C ,  7-C ) :   0.9786 B(  6-C , 21-H ) :   0.9564 
B(  6-C , 22-H ) :   0.9562 B(  7-C , 23-H ) :   0.9680 B(  7-C , 24-H ) :   0.9695 
B(  7-C , 25-H ) :   0.9680 

-------
TIMINGS
-------

Total SCF time: 0 days 0 hours 0 min 23 sec 

Total time                  ....      23.164 sec
Sum of individual times     ....      21.382 sec  ( 92.3%)

SCF preparation             ....       3.735 sec  ( 16.1%)
Fock matrix formation       ....      16.009 sec  ( 69.1%)
  Startup                   ....       0.176 sec  (  1.1% of F)
  Split-RI-J                ....       0.802 sec  (  5.0% of F)
  XC integration            ....      14.014 sec  ( 87.5% of F)
    XC Preparation          ....       0.000 sec  (  0.0% of XC)
    Basis function eval.    ....       0.088 sec  (  0.6% of XC)
    Density eval.           ....       0.068 sec  (  0.5% of XC)
    XC-Functional eval.     ....       0.015 sec  (  0.1% of XC)
    XC-Potential eval.      ....       0.097 sec  (  0.7% of XC)
  CPCM terms                ....       0.633 sec  (  4.0% of F)
Diagonalization             ....       0.000 sec  (  0.0%)
Density matrix formation    ....       0.303 sec  (  1.3%)
Total Energy calculation    ....       0.199 sec  (  0.9%)
Population analysis         ....       0.086 sec  (  0.4%)
Orbital Transformation      ....       0.122 sec  (  0.5%)
Orbital Orthonormalization  ....       0.000 sec  (  0.0%)
DIIS solution               ....       0.608 sec  (  2.6%)
SOSCF solution              ....       0.321 sec  (  1.4%)
Finished LeanSCF after  23.2 sec

Maximum memory used throughout the entire LEANSCF-calculation: 30.2 MB

-------------------------   --------------------
FINAL SINGLE POINT ENERGY      -315.806664441975
-------------------------   --------------------



           ************************************************************
           *        Program running with 64 parallel MPI-processes    *
           *              working on a common directory               *
           ************************************************************
------------------------------------------------------------------------------
                         ORCA SCF GRADIENT CALCULATION
------------------------------------------------------------------------------

Nuc. rep. gradient        (SHARK) ... done (  0.0 sec)
HCore & Overlap gradient  (SHARK) ... done (  0.0 sec)
Split-RIJ-J gradient      (SHARK) ... done (  0.2 sec)
XC gradient                       ... done (  1.4 sec)
CPCM gradient                     ... done (  0.2 sec)

------------------
CARTESIAN GRADIENT
------------------

   1   C   :   -0.000238378    0.000034939   -0.000066823
   2   C   :    0.000312811   -0.000118025    0.000184738
   3   C   :   -0.000218679    0.000172757   -0.000242958
   4   C   :    0.000227502   -0.000180754    0.000254030
   5   C   :   -0.000233082    0.000182382   -0.000248306
   6   C   :    0.000212593   -0.000184831    0.000241692
   7   C   :   -0.000319024    0.000127324   -0.000173904
   8   C   :    0.000238930   -0.000046618    0.000056724
   9   H   :    0.000014231    0.000008878    0.000006384
  10   H   :    0.000008540    0.000000096    0.000009914
  11   H   :    0.000002549   -0.000005722   -0.000007663
  12   H   :   -0.000013951    0.000052111    0.000011427
  13   H   :   -0.000022908   -0.000022462   -0.000042011
  14   H   :    0.000021867   -0.000045442   -0.000015638
  15   H   :    0.000017307    0.000020793    0.000043506
  16   H   :   -0.000010174    0.000051665    0.000005008
  17   H   :   -0.000022363   -0.000016961   -0.000042177
  18   H   :    0.000021474   -0.000047380   -0.000012155
  19   H   :    0.000016528    0.000014556    0.000045321
  20   H   :   -0.000010564    0.000050410    0.000008951
  21   H   :   -0.000022866   -0.000022319   -0.000039847
  22   H   :    0.000026118   -0.000049337   -0.000011721
  23   H   :    0.000017942    0.000023801    0.000041188
  24   H   :   -0.000006280   -0.000003159   -0.000008091
  25   H   :   -0.000013640   -0.000002464   -0.000001615
  26   H   :   -0.000006485    0.000005759    0.000004027

Difference to translation invariance:
           :   -0.0000000000   -0.0000000000    0.0000000000

Difference to rotation invariance:
           :   -0.0002421186   -0.0003213223   -0.0003356712

Norm of the Cartesian gradient     ...    0.0010129063
RMS gradient                       ...    0.0001146891
MAX gradient                       ...    0.0003190235

-------
TIMINGS
-------

Total SCF gradient time     ....        2.024 sec

Densities                   ....       0.005 sec  (  0.3%)
One electron gradient       ....       0.041 sec  (  2.0%)
RI-J Coulomb gradient       ....       0.198 sec  (  9.8%)
XC gradient                 ....       1.399 sec  ( 69.1%)
CPCM gradient               ....       0.163 sec  (  8.1%)
   A-Matrix (El+Nuc)        ....       0.090 sec  (  4.5%)
   Potential                ....       0.073 sec  (  3.6%)

Maximum memory used throughout the entire SCFGRAD-calculation: 39.0 MB
------------------------------------------------------------------------------
                         ORCA GEOMETRY RELAXATION STEP
------------------------------------------------------------------------------

Reading the OPT-File                    .... done
Getting information on internals        .... done
Copying old internal coords+grads       .... done
Making the new internal coordinates     .... (2022 redundants) done
Validating the new internal coordinates .... (2022 redundants) done
Calculating the B-matrix                .... done
Calculating the G,G- and P matrices     .... done
Transforming gradient to internals      .... done
Projecting the internal gradient        .... done
Number of atoms                         ....  26
Number of internal coordinates          .... 115
Current Energy                          ....  -315.806664442 Eh
Current gradient norm                   ....     0.001012906 Eh/bohr
Maximum allowed component of the step   ....  0.300
Current trust radius                    ....  0.300
Evaluating the initial hessian          ....  (Almloef) done
Projecting the Hessian                  .... done
Forming the augmented Hessian           .... done
Diagonalizing the augmented Hessian     .... done
Last element of RFO vector              ....  0.999993454
Lowest eigenvalues of augmented Hessian:
 -0.000000976  0.010879855  0.010879912  0.010880598  0.010898673
Length of the computed step             ....  0.003618426
The final length of the internal step   ....  0.003618426
Converting the step to Cartesian space:
 Initial RMS(Int)=    0.0003374200
Transforming coordinates:
 Iter   0:  RMS(Cart)=    0.0011675864 RMS(Int)=    0.0003373942
done
Storing new coordinates                 .... done

                                .--------------------.
          ----------------------|Geometry convergence|-------------------------
          Item                value                   Tolerance       Converged
          ---------------------------------------------------------------------
          RMS gradient        0.0000510867            0.0001000000      YES
          MAX gradient        0.0002041091            0.0003000000      YES
          RMS step            0.0003374200            0.0020000000      YES
          MAX step            0.0007544285            0.0040000000      YES
          ........................................................
          Max(Bonds)      0.0003      Max(Angles)    0.03
          Max(Dihed)        0.04      Max(Improp)    0.00
          ---------------------------------------------------------------------

                    ***********************HURRAY********************
                    ***        THE OPTIMIZATION HAS CONVERGED     ***
                    *************************************************


    ---------------------------------------------------------------------------
                         Redundant Internal Coordinates

[...]
   4 C :   -0.238063
   5 C :   -0.246539
   6 C :   -0.287538
   7 C :   -0.135441
   8 H :    0.069019
   9 H :    0.073109
  10 H :    0.073134
  11 H :    0.109939
  12 H :    0.109942
  13 H :    0.117986
  14 H :    0.117941
  15 H :    0.118259
  16 H :    0.118254
  17 H :    0.118271
  18 H :    0.118241
  19 H :    0.117970
  20 H :    0.117959
  21 H :    0.109944
  22 H :    0.109936
  23 H :    0.073112
  24 H :    0.069018
  25 H :    0.073130

-------------------------------
LOEWDIN REDUCED ORBITAL CHARGES
-------------------------------
  0 C s       :     2.748467  s :     2.748467
      pz      :     0.968804  p :     2.893076
      px      :     0.953296
      py      :     0.970975
      dz2     :     0.060830  d :     0.467962
      dxz     :     0.135257
      dyz     :     0.044921
      dx2y2   :     0.087641
      dxy     :     0.139314
      f0      :     0.002223  f :     0.025934
      f+1     :     0.003885
      f-1     :     0.003491
      f+2     :     0.003622
      f-2     :     0.002475
      f+3     :     0.004756
      f-3     :     0.005481

  1 C s       :     2.696182  s :     2.696182
      pz      :     0.927349  p :     2.777161
      px      :     0.919520
      py      :     0.930292
      dz2     :     0.171067  d :     0.774927
      dxz     :     0.181737
      dyz     :     0.087615
      dx2y2   :     0.168819
      dxy     :     0.165690
      f0      :     0.005231  f :     0.039272
      f+1     :     0.005752
      f-1     :     0.005566
      f+2     :     0.006603
      f-2     :     0.004228
      f+3     :     0.005456
      f-3     :     0.006435

  2 C s       :     2.690233  s :     2.690233
      pz      :     0.917166  p :     2.746732
      px      :     0.908054
      py      :     0.921512
      dz2     :     0.175475  d :     0.770549
      dxz     :     0.177761
      dyz     :     0.093393
      dx2y2   :     0.162622
      dxy     :     0.161297
      f0      :     0.005211  f :     0.039012
      f+1     :     0.005792
      f-1     :     0.005549
      f+2     :     0.006451
      f-2     :     0.004208
      f+3     :     0.005434
      f-3     :     0.006368

  3 C s       :     2.688793  s :     2.688793
      pz      :     0.916121  p :     2.744178
      px      :     0.907086
      py      :     0.920972
      dz2     :     0.174686  d :     0.766102
      dxz     :     0.176366
      dyz     :     0.091852
      dx2y2   :     0.162616
      dxy     :     0.160581
      f0      :     0.005197  f :     0.039002
      f+1     :     0.005795
      f-1     :     0.005549
      f+2     :     0.006443
      f-2     :     0.004196
      f+3     :     0.005445
      f-3     :     0.006378

  4 C s       :     2.688797  s :     2.688797
      pz      :     0.916139  p :     2.744188
      px      :     0.907086
      py      :     0.920963
      dz2     :     0.174704  d :     0.766076
      dxz     :     0.176534
      dyz     :     0.091665
      dx2y2   :     0.162787
      dxy     :     0.160386
      f0      :     0.005196  f :     0.039002
      f+1     :     0.005801
      f-1     :     0.005543
      f+2     :     0.006437
      f-2     :     0.004202
      f+3     :     0.005431
      f-3     :     0.006392

  5 C s       :     2.690231  s :     2.690231
      pz      :     0.917175  p :     2.746724
      px      :     0.908049
      py      :     0.921501
      dz2     :     0.175468  d :     0.770572
      dxz     :     0.177975
      dyz     :     0.092887
      dx2y2   :     0.163151
      dxy     :     0.161091
      f0      :     0.005203  f :     0.039012
      f+1     :     0.005795
      f-1     :     0.005538
      f+2     :     0.006450
      f-2     :     0.004212
      f+3     :     0.005426
      f-3     :     0.006388

  6 C s       :     2.696185  s :     2.696185
      pz      :     0.927364  p :     2.777164
      px      :     0.919516
      py      :     0.930284
      dz2     :     0.171068  d :     0.774917
      dxz     :     0.182223
      dyz     :     0.086853
      dx2y2   :     0.169606
      dxy     :     0.165168
      f0      :     0.005222  f :     0.039272
      f+1     :     0.005764
      f-1     :     0.005546
      f+2     :     0.006592
      f-2     :     0.004242
      f+3     :     0.005428
      f-3     :     0.006477

  7 C s       :     2.748468  s :     2.748468
      pz      :     0.968810  p :     2.893071
      px      :     0.953291
      py      :     0.970971
      dz2     :     0.060728  d :     0.467967
      dxz     :     0.135747
      dyz     :     0.044566
      dx2y2   :     0.088095
      dxy     :     0.138832
      f0      :     0.002232  f :     0.025934
      f+1     :     0.003900
      f-1     :     0.003463
      f+2     :     0.003612
      f-2     :     0.002491
      f+3     :     0.004725
      f-3     :     0.005511

  8 H s       :     0.708364  s :     0.708364
      pz      :     0.090643  p :     0.222618
      px      :     0.057527
      py      :     0.074447

  9 H s       :     0.703319  s :     0.703319
      pz      :     0.098011  p :     0.223572
      px      :     0.058335
      py      :     0.067226

 10 H s       :     0.703315  s :     0.703315
      pz      :     0.060022  p :     0.223550
      px      :     0.058468
      py      :     0.105060

 11 H s       :     0.684997  s :     0.684997
      pz      :     0.052388  p :     0.205064
      px      :     0.059128
      py      :     0.093548

 12 H s       :     0.685020  s :     0.685020
      pz      :     0.084758  p :     0.205038
      px      :     0.058971
      py      :     0.061309

 13 H s       :     0.677292  s :     0.677292
      pz      :     0.051738  p :     0.204722
      px      :     0.058685
      py      :     0.094300

 14 H s       :     0.677290  s :     0.677290
      pz      :     0.086559  p :     0.204768
      px      :     0.058711
      py      :     0.059499

 15 H s       :     0.676836  s :     0.676836
      pz      :     0.051850  p :     0.204904
      px      :     0.058935
      py      :     0.094119

 16 H s       :     0.676861  s :     0.676861
      pz      :     0.086575  p :     0.204885
      px      :     0.058941
      py      :     0.059369

 17 H s       :     0.676865  s :     0.676865
      pz      :     0.051835  p :     0.204863
      px      :     0.058869
      py      :     0.094159

 18 H s       :     0.676849  s :     0.676849
      pz      :     0.086570  p :     0.204911
      px      :     0.058995
      py      :     0.059345

 19 H s       :     0.677268  s :     0.677268
      pz      :     0.051786  p :     0.204763
      px      :     0.058647
      py      :     0.094330

 20 H s       :     0.677300  s :     0.677300
      pz      :     0.086636  p :     0.204741
      px      :     0.058755
      py      :     0.059350

 21 H s       :     0.685019  s :     0.685019
      pz      :     0.052431  p :     0.205037
      px      :     0.058971
      py      :     0.093635

 22 H s       :     0.685006  s :     0.685006
      pz      :     0.084830  p :     0.205058
      px      :     0.059115
      py      :     0.061113

 23 H s       :     0.703324  s :     0.703324
      pz      :     0.098109  p :     0.223564
      px      :     0.058463
      py      :     0.066992

 24 H s       :     0.708365  s :     0.708365
      pz      :     0.090505  p :     0.222616
      px      :     0.057535
      py      :     0.074576

 25 H s       :     0.703307  s :     0.703307
      pz      :     0.060059  p :     0.223562
      px      :     0.058337
      py      :     0.105167



                      *****************************
                      * MAYER POPULATION ANALYSIS *
                      *****************************

  NA   - Mulliken gross atomic population
  ZA   - Total nuclear charge
  QA   - Mulliken gross atomic charge
  VA   - Mayer's total valence
  BVA  - Mayer's bonded valence
  FA   - Mayer's free valence

  ATOM       NA         ZA         QA         VA         BVA        FA
  0 C      7.4121     6.0000    -1.4121     3.5630     3.5630     0.0000
  1 C      6.2331     6.0000    -0.2331     2.9068     2.9068     0.0000
  2 C      6.5568     6.0000    -0.5568     3.3465     3.3465     0.0000
  3 C      6.6334     6.0000    -0.6334     3.4903     3.4903     0.0000
  4 C      6.6334     6.0000    -0.6334     3.4902     3.4902     0.0000
  5 C      6.5568     6.0000    -0.5568     3.3467     3.3467     0.0000
  6 C      6.2331     6.0000    -0.2331     2.9067     2.9067     0.0000
  7 C      7.4120     6.0000    -1.4120     3.5631     3.5631    -0.0000
  8 H      0.6118     1.0000     0.3882     0.9438     0.9438    -0.0000
  9 H      0.6563     1.0000     0.3437     1.0014     1.0014     0.0000
 10 H      0.6564     1.0000     0.3436     1.0016     1.0016     0.0000
 11 H      0.7046     1.0000     0.2954     0.9222     0.9222     0.0000
 12 H      0.7036     1.0000     0.2964     0.9208     0.9208     0.0000
 13 H      0.7079     1.0000     0.2921     0.9101     0.9101     0.0000
 14 H      0.7073     1.0000     0.2927     0.9092     0.9092     0.0000
 15 H      0.7090     1.0000     0.2910     0.9060     0.9060     0.0000
 16 H      0.7079     1.0000     0.2921     0.9043     0.9043    -0.0000
 17 H      0.7087     1.0000     0.2913     0.9057     0.9057    -0.0000
 18 H      0.7081     1.0000     0.2919     0.9045     0.9045    -0.0000
 19 H      0.7077     1.0000     0.2923     0.9099     0.9099     0.0000
 20 H      0.7074     1.0000     0.2926     0.9094     0.9094     0.0000
 21 H      0.7043     1.0000     0.2957     0.9218     0.9218     0.0000
 22 H      0.7039     1.0000     0.2961     0.9212     0.9212     0.0000
 23 H      0.6565     1.0000     0.3435     1.0017     1.0017    -0.0000
 24 H      0.6118     1.0000     0.3882     0.9438     0.9438    -0.0000
 25 H      0.6562     1.0000     0.3438     1.0013     1.0013    -0.0000

  Mayer bond orders larger than 0.100000
B(  0-C ,  1-C ) :   0.4827 B(  0-C ,  2-C ) :   0.2282 B(  0-C ,  8-H ) :   0.9064 
B(  0-C ,  9-H ) :   0.9519 B(  0-C , 10-H ) :   0.9520 B(  1-C ,  2-C ) :   0.4754 
B(  1-C ,  3-C ) :   0.3236 B(  1-C , 11-H ) :   0.9409 B(  1-C , 12-H ) :   0.9395 
B(  2-C ,  3-C ) :   0.4694 B(  2-C ,  4-C ) :   0.3700 B(  2-C , 13-H ) :   0.9699 
B(  2-C , 14-H ) :   0.9685 B(  3-C ,  4-C ) :   0.4976 B(  3-C ,  5-C ) :   0.3701 
B(  3-C , 15-H ) :   0.9632 B(  3-C , 16-H ) :   0.9608 B(  4-C ,  5-C ) :   0.4694 
B(  4-C ,  6-C ) :   0.3236 B(  4-C , 17-H ) :   0.9627 B(  4-C , 18-H ) :   0.9612 
B(  5-C ,  6-C ) :   0.4753 B(  5-C ,  7-C ) :   0.2282 B(  5-C , 19-H ) :   0.9699 
B(  5-C , 20-H ) :   0.9686 B(  6-C ,  7-C ) :   0.4828 B(  6-C , 21-H ) :   0.9406 
B(  6-C , 22-H ) :   0.9398 B(  7-C , 23-H ) :   0.9522 B(  7-C , 24-H ) :   0.9064 
B(  7-C , 25-H ) :   0.9517 

-------
TIMINGS
-------

Total SCF time: 0 days 0 hours 0 min 12 sec 

Total time                  ....      12.052 sec
Sum of individual times     ....      11.452 sec  ( 95.0%)

SCF preparation             ....       4.134 sec  ( 34.3%)
Fock matrix formation       ....       6.500 sec  ( 53.9%)
  Startup                   ....       0.071 sec  (  1.1% of F)
  Split-RI-J                ....       0.381 sec  (  5.9% of F)
  XC integration            ....       5.643 sec  ( 86.8% of F)
    XC Preparation          ....       0.000 sec  (  0.0% of XC)
    Basis function eval.    ....       0.048 sec  (  0.8% of XC)
    Density eval.           ....       0.061 sec  (  1.1% of XC)
    XC-Functional eval.     ....       0.005 sec  (  0.1% of XC)
    XC-Potential eval.      ....       0.096 sec  (  1.7% of XC)
  CPCM terms                ....       0.271 sec  (  4.2% of F)
Diagonalization             ....       0.000 sec  (  0.0%)
Density matrix formation    ....       0.103 sec  (  0.9%)
Total Energy calculation    ....       0.075 sec  (  0.6%)
Population analysis         ....       0.120 sec  (  1.0%)
Orbital Transformation      ....       0.098 sec  (  0.8%)
Orbital Orthonormalization  ....       0.000 sec  (  0.0%)
DIIS solution               ....       0.118 sec  (  1.0%)
SOSCF solution              ....       0.303 sec  (  2.5%)
Finished LeanSCF after  12.2 sec

Maximum memory used throughout the entire LEANSCF-calculation: 40.8 MB

-------------------------   --------------------
FINAL SINGLE POINT ENERGY      -315.807783748699
-------------------------   --------------------



           ************************************************************
           *        Program running with 64 parallel MPI-processes    *
           *              working on a common directory               *
           ************************************************************

------------------------------------------------------------------------------
                              ORCA PROPERTY CALCULATIONS
------------------------------------------------------------------------------

GBWName                                 ... single_point_tzvpd.gbw
Number of atoms                         ...     26
Number of basis functions               ...    458
Max core memory                         ...   2000 MB

Electric properties:
Dipole moment                           ... YES
Quadrupole moment                       ...  NO
Static polarizability (Dipole/Dipole)   ...  NO
Static polarizability (Dipole/Quad.)    ...  NO
Static polarizability (Quad./Quad.)     ...  NO
Static polarizability (Velocity)        ...  NO

Atomic electric properties:
Dipole moment                           ...  NO
Quadrupole moment                       ...  NO
Static polarizability                   ...  NO

Choice of electric origin               ... Center of mass
Position of electric origin             ...     9.143381     2.428573    -3.461367

General magnetic properties:
Magnetizability                         ...  NO

EPR properties:
g-Tensor (aka g-matrix)                 ...  NO
Zero-Field splitting spin-orbit         ...  NO
Zero-field splitting spin-spin          ...  NO
Hyperfine couplings                     ...  NO (   0 nuclei)
Quadrupole couplings                    ...  NO (   0 nuclei)
Contact density                         ...  NO (   0 nuclei)

NMR properties:
Chemical shifts                         ...  NO (   0 nuclei)
Spin-rotation constants                 ...  NO (   0 nuclei)
Spin-spin couplings                     ...  NO (   0 nuclei,    0 pairs)

Choice of magnetic origin               ... GIAO
Position of magnetic origin             ...     0.000000     0.000000     0.000000

Properties with geometric perturbations:
SCF Hessian                             ...  NO
IR spectrum                             ...  NO
VCD spectrum                            ...  NO
X-ray spectroscopy properties:
SCF XES/XAS/RIXS spectra                ...  NO


-------------
DIPOLE MOMENT
-------------

Method             : SCF
Type of density    : Electron Density
Multiplicity       :   1
Irrep              :   0
Energy             :  -315.8077837486990234 Eh
Relativity type    : 
Basis              : AO
                                X                 Y                 Z
Electronic contribution:     -0.000381065       0.003762814       0.002100256
Nuclear contribution   :      0.000377222      -0.003607147      -0.001987178
                        -----------------------------------------
Total Dipole Moment    :     -0.000003843       0.000155667       0.000113078
                        -----------------------------------------
Magnitude (a.u.)       :      0.000192441
Magnitude (Debye)      :      0.000489147



--------------------
Rotational spectrum 
--------------------
 
Rotational constants in cm-1:             0.356017             0.016167             0.015831 
Rotational constants in MHz :         10673.134415           484.665346           474.591558 

Dipole components along the rotational axes: 
x,y,z [a.u.] :    -0.000006     0.000003     0.000192 
x,y,z [Debye]:    -0.000016     0.000006     0.000489 

 

Dipole moment calculation done in   0.0 sec 

Maximum memory used throughout the entire PROP-calculation: 26.6 MB

--------------------------------
SUGGESTED CITATIONS FOR THIS RUN
--------------------------------

Below you find a list of papers that are relevant to this ORCA run
We neither can nor want to force you to cite these papers, but we appreciate if you do
You receive ORCA, which is the product of decades of hard work by many enthusiastic individuals, for free
The only thing we kindly ask in return is that you cite our papers,
We deeply appreciate it, if you show your appreciation for ORCA by not just citing the generic ORCA reference.

Please note that relegating all ORCA citations to the supporting information does *not* help us.
SI sections are not indexed - citations you put there will not count into any citation statistics
But we need these citations in order to attract the funding resources that allow us to do what we are doing

Therefore, if you are a happy ORCA user, please consider citing a few of the papers listed below in the main body of your paper

In addition to the list printed below, the program has created the file single_point_tzvpd.bibtex that contains the list in bibtex format
You can import this file easily into all common literature databanks and citation aid programs


List of essential papers. We consider these as the minimum necessary citations

  1. Neese,F.
     Software update: the ORCA program system, version 5.0
     WIRES Comput. Molec. Sci., 2022 12(1)e1606
     doi.org/10.1002/wcms.1606

List of papers to cite with high priority. The work reported in these papers was absolutely
necessary for this run to complete.
Our perspective: the developers of density functionals and basis sets usually get cited in chemistry papers
Good! But without the algorithms to do something with them, the functionals or basis sets would not do anything.
Hence, in our opinion, the algorithm design and method developments papers are equally worthy of getting cited

  1. Neese,F.
     An improvement of the resolution of the identity approximation for the formation of the Coulomb matrix
     J. Comp. Chem., 2003 24(14)1740-1747
     doi.org/10.1002/jcc.10318
  2. Garcia-Rates,M.; Neese,F.
     Effect of the Solute Cavity on the Solvation Energy and its Derivatives within the Framework of the Gaussian Charge Scheme
     J. Comput. Chem., 2020 41 922-939
     doi.org/10.1002/jcc.26139
  3. Neese,F.
     The SHARK Integral Generation and Digestion System
     J. Comp. Chem., 2022  1-16
     doi.org/10.1002/jcc.26942

List of suggested additional citations. These are papers that are important in the 'surrounding' of 
of this run, or papers that preceded the highly important papers. If you like your results we are grateful for a citation.

  1. Neese,F.
     The ORCA program system
     WIRES Comput. Molec. Sci., 2012 2(1)73-78
     doi.org/10.1002/wcms.81
  2. Neese,F.
     Software update: the ORCA program system, version 4.0
     WIRES Comput. Molec. Sci., 2018 8(1)1-6
     doi.org/10.1002/wcms.1327
  3. Neese,F.; Wennmohs,F.; Becker,U.; Riplinger,C.
     The ORCA quantum chemistry program package
     J. Chem. Phys., 2020 152 Art. No. L224108
     doi.org/10.1063/5.0004608

List of optional additional citations

  1. Neese,F.
     Approximate second-order SCF convergence for spin unrestricted wavefunctions
     Chem. Phys. Lett., 2000 325(1-3)93-98
     doi.org/10.1016/s0009-2614(00)00662-x

Timings for individual modules:

Sum of individual times          ...       25.837 sec (=   0.431 min)
Startup calculation              ...        4.613 sec (=   0.077 min)  17.9 %
SCF iterations                   ...       17.201 sec (=   0.287 min)  66.6 %
Property calculations            ...        4.023 sec (=   0.067 min)  15.6 %



                             ****ORCA TERMINATED NORMALLY****
TOTAL RUN TIME: 0 days 0 hours 1 minutes 39 seconds 834 msec
