
                                 *****************
                                 * O   R   C   A *
                                 *****************

                                            #,                                       
                                            ###                                      
                                            ####                                     
                                            #####                                    
                                            ######                                   
                                           ########,                                 
                                     ,,################,,,,,                         
                               ,,#################################,,                 
                          ,,##########################################,,             
                       ,#########################################, ''#####,          
                    ,#############################################,,   '####,        
                  ,##################################################,,,,####,       
                ,###########''''           ''''###############################       
              ,#####''   ,,,,##########,,,,          '''####'''          '####       
            ,##' ,,,,###########################,,,                        '##       
           ' ,,###''''                  '''############,,,                           
         ,,##''                                '''############,,,,        ,,,,,,###''
      ,#''                                            '''#######################'''  
     '                                                          ''''####''''         
             ,#######,   #######,   ,#######,      ##                                
            ,#'     '#,  ##    ##  ,#'     '#,    #''#        ,####,   ,####,        
            ##       ##  ##   ,#'  ##            #'  '#       #'       #'  '#        
            ##       ##  #######   ##           ,######,      #####,   #    #        
            '#,     ,#'  ##    ##  '#,     ,#' ,#      #,     #,   #   #,  ,#        
             '#######'   ##     ##  '#######'  #'      '#     '####' # '####'        



                #########################################################
                #                        -***-                          #
                #          Department of theory and spectroscopy        #
                #                                                       #
                #                      Frank Neese                      #
                #                                                       #
                #     Directorship, Architecture, Infrastructure        #
                #                    SHARK, DRIVERS                     #
                #        Core code/Algorithms in most modules           #
                #                                                       #
                #        Max Planck Institute fuer Kohlenforschung      #
                #                Kaiser Wilhelm Platz 1                 #
                #                 D-45470 Muelheim/Ruhr                 #
                #                      Germany                          #
                #                                                       #
                #                  All rights reserved                  #
                #                        -***-                          #
                #########################################################


                         Program Version 6.0.0  -   RELEASE  -


 With contributions from (in alphabetic order):
   Daniel Aravena         : Magnetic Suceptibility
   Michael Atanasov       : Ab Initio Ligand Field Theory (pilot matlab implementation)
   Alexander A. Auer      : GIAO ZORA, VPT2 properties, NMR spectrum
   Ute Becker             : All parallelization in ORCA, NUMFREQ, NUMCALC
   Giovanni Bistoni       : ED, misc. LED, open-shell LED, HFLD
   Martin Brehm           : Molecular dynamics
   Dmytro Bykov           : pre 5.0 version of the SCF Hessian
   Marcos Casanova-Páez   : Triplet and SCS-CIS(D). UHF-(DLPNO)-IP/EA/STEOM-CCSD. UHF-CVS-IP/STEOM-CCSD
   Vijay G. Chilkuri      : MRCI spin determinant printing, contributions to CSF-ICE
   Pauline Colinet        : FMM embedding
   Dipayan Datta          : RHF DLPNO-CCSD density
   Achintya Kumar Dutta   : EOM-CC, STEOM-CC
   Nicolas Foglia         : Exact transition moments, OPA infrastructure, MCD improvements
   Dmitry Ganyushin       : Spin-Orbit,Spin-Spin,Magnetic field MRCI
   Miquel Garcia          : C-PCM and meta-GGA Hessian, CCSD/C-PCM, Gaussian charge scheme
   Tiago L. C. Gouveia    : GS-ROHF, GS-ROCIS
   Yang Guo               : DLPNO-NEVPT2, F12-NEVPT2, CIM, IAO-localization
   Andreas Hansen         : Spin unrestricted coupled pair/coupled cluster methods
   Ingolf Harden          : AUTO-CI MPn and infrastructure 
   Benjamin Helmich-Paris : MC-RPA, TRAH-(SCF,CASSCF), AVAS, COSX integrals, SCF dyn. polar.
   Lee Huntington         : MR-EOM, pCC
   Robert Izsak           : Overlap fitted RIJCOSX, COSX-SCS-MP3, EOM
   Riya Kayal             : Wick's Theorem for AUTO-CI, AUTO-CI UHF-CCSDT
   Emily Kempfer          : AUTO-CI, RHF CISDT and CCSDT
   Christian Kollmar      : KDIIS, OOCD, Brueckner-CCSD(T), CCSD density, CASPT2, CASPT2-K, improved NEVPT2
   Axel Koslowski         : Symmetry handling
   Simone Kossmann        : Meta GGA functionals, TD-DFT gradient, OOMP2, (MP2 Hessian; deprecated post 5.0)
   Lucas Lang             : DCDCAS
   Marvin Lechner         : AUTO-CI (C++ implementation), FIC-MRCC
   Spencer Leger          : CASSCF response
   Dagmar Lenk            : GEPOL surface, SMD, ORCA-2-JSON
   Dimitrios Liakos       : Extrapolation schemes; Compound Job, initial MDCI parallelization
   Dimitrios Manganas     : Further ROCIS development; embedding schemes. LFT, Crystal Embedding
   Dimitrios Pantazis     : SARC Basis sets
   Anastasios Papadopoulos: AUTO-CI, single reference methods and gradients
   Taras Petrenko         : pre 6.0 DFT Hessian and TD-DFT gradient, (ASA, deprecated), ECA, 1-Electron XAS/XES, NRVS
   Peter Pinski           : DLPNO-MP2, DLPNO-MP2 Gradient
   Christoph Reimann      : Effective Core Potentials
   Marius Retegan         : Local ZFS, SOC
   Christoph Riplinger    : Optimizer, TS searches, QM/MM, DLPNO-CCSD(T), (RO)-DLPNO pert. Triples
   Michael Roemelt        : Original ROCIS implementation
   Masaaki Saitow         : Open-shell DLPNO-CCSD energy and density
   Barbara Sandhoefer     : DKH picture change effects
   Kantharuban Sivalingam : CASSCF convergence/infrastructure, NEVPT2 and variants, FIC-MRCI
   Bernardo de Souza      : ESD, SOC TD-DFT
   Georgi Stoychev        : AutoAux, RI-MP2 NMR, DLPNO-MP2 response, X2C
   Van Anh Tran           : RI-MP2 g-tensors
   Willem Van den Heuvel  : Paramagnetic NMR
   Zikuan Wang            : NOTCH, Electric field optimization 
   Frank Wennmohs         : Technical directorship and infrastructure
   Hang Xu                : AUTO-CI-Response properties 


 We gratefully acknowledge several colleagues who have allowed us to
 interface, adapt or use parts of their codes:
   Stefan Grimme, W. Hujo, H. Kruse, P. Pracht,  : VdW corrections, initial TS optimization,
                  C. Bannwarth, S. Ehlert,         DFT functionals, gCP, sTDA/sTD-DF
                  L. Wittmann, M. Mueller
   Ed Valeev, F. Pavosevic, A. Kumar             : LibInt (2-el integral package), F12 methods
   Garnet Chan, S. Sharma, J. Yang, R. Olivares  : DMRG
   Ulf Ekstrom                                   : XCFun DFT Library
   Mihaly Kallay                                 : mrcc  (arbitrary order and MRCC methods)
   Frank Weinhold                                : gennbo (NPA and NBO analysis)
   Simon Mueller                                 : openCOSMO-RS
   Christopher J. Cramer and Donald G. Truhlar   : smd solvation model
   Lars Goerigk                                  : TD-DFT with DH, B97 family of functionals
   V. Asgeirsson, H. Jonsson                     : NEB implementation
   FAccTs GmbH                                   : IRC, NEB, NEB-TS, DLPNO-Multilevel, CI-OPT
                                                   MM, QMMM, 2- and 3-layer-ONIOM, Crystal-QMMM,
                                                   LR-CPCM, SF, NACMEs, symmetry and pop. for TD-DFT,
                                                   nearIR, NL-DFT gradient (VV10), updates on ESD,
                                                   ML-optimized integration grids, MBIS, APM,
                                                   GOAT, DOCKER, SOLVATOR, interface openCOSMO-RS
   S Lehtola, MJT Oliveira, MAL Marques          : LibXC Library
   Liviu Ungur et al                             : ANISO software


 Your calculation uses the libint2 library for the computation of 2-el integrals
 For citations please refer to: http://libint.valeyev.net

 Your ORCA version has been built with support for libXC version: 6.2.2
 For citations please refer to: https://libxc.gitlab.io

 This ORCA versions uses:
   CBLAS   interface :  Fast vector & matrix operations
   LAPACKE interface :  Fast linear algebra routines
   SCALAPACK package :  Parallel linear algebra routines
   Shared memory     :  Shared parallel matrices
   BLAS/LAPACK       :  OpenBLAS 0.3.27  USE64BITINT DYNAMIC_ARCH NO_AFFINITY Zen SINGLE_THREADED
        Core in use  :  Zen
   Copyright (c) 2011-2014, The OpenBLAS Project


NOTE: MaxCore=2000 MB was set to SCF,MP2,MDCI,CIPSI,MRCI and CIS
      => If you want to overwrite this, your respective input block should be placed after the MaxCore statement


***************************************
The coordinates will be read from file: DECAN_c000.xyz
***************************************


Warning: RI is on but no J-basis has been assigned. Assigning Def2/J (nothing to worry about!)
================================================================================

----- Orbital basis set information -----
Your calculation utilizes the basis: def2-TZVP
   F. Weigend and R. Ahlrichs, Phys. Chem. Chem. Phys. 7, 3297 (2005).

----- AuxJ basis set information -----
Your calculation utilizes the auxiliary basis: def2/J
   F. Weigend, Phys. Chem. Chem. Phys. 8, 1057 (2006).

================================================================================
                                        WARNINGS
                       Please study these warnings very carefully!
================================================================================


WARNING: Geometry Optimization
  ===> : Switching off AutoStart
         For restart on a previous wavefunction, please use MOREAD



***************************************
The coordinates will be read from file: geo_opt_tzvp.xyz
***************************************


Warning: RI is on but no J-basis has been assigned. Assigning Def2/J (nothing to worry about!)
================================================================================

----- Orbital basis set information -----
Your calculation utilizes the basis: def2-TZVPD
   F. Weigend and R. Ahlrichs, Phys. Chem. Chem. Phys. 7, 3297 (2005).
   D. Rappoport and F. Furche, J. Chem. Phys. 133, 134105 (2010)
   D. Rappoport, J. Chem. Phys. 155, 124102 (2021).

----- AuxJ basis set information -----
Your calculation utilizes the auxiliary basis: def2/J
   F. Weigend, Phys. Chem. Chem. Phys. 8, 1057 (2006).

================================================================================
                                        WARNINGS
                       Please study these warnings very carefully!
================================================================================


================================================================================
                                       INPUT FILE
================================================================================
NAME = input.dat
|  1> %MaxCore 2000
|  2> 
|  3> %base "geo_opt_tzvp"
|  4> 
|  5> %cpcm
|  6> radius[1]  1.3
|  7> radius[2]  1.601
|  8> radius[5]  2.048
|  9> radius[6]  2.0
| 10> radius[7]  1.83
| 11> radius[8]  1.72
| 12> radius[9]  1.72
| 13> radius[10]  1.771
| 14> radius[13]  2.152
| 15> radius[14]  2.2
| 16> radius[15]  2.106
| 17> radius[16]  2.16
| 18> radius[17]  2.05
| 19> radius[18]  2.184
| 20> radius[22]  2.261
| 21> radius[26]  2.195
| 22> radius[27]  2.153
| 23> radius[31]  2.172
| 24> radius[32]  2.7
| 25> radius[33]  2.148
| 26> radius[34]  2.2
| 27> radius[35]  2.16
| 28> radius[36]  2.354
| 29> radius[49]  2.245
| 30> radius[50]  2.55
| 31> radius[51]  2.402
| 32> radius[53]  2.32
| 33> radius[54]  2.524
| 34> radius[80]  1.978
| 35> radius[82]  2.36
| 36> radius[86]  2.573
| 37> cut_area 0.03571064825863687
| 38> end
| 39> 
| 40> ! OPT CPCM BP86 def2-TZVP PAL64
| 41> 
| 42> * xyzfile 0 1 DECAN_c000.xyz
| 43> 
| 44> $new_job
| 45> 
| 46> ! CPCM BP86 def2-TZVPD SP PAL64
| 47> 
| 48> %base "single_point_tzvpd"
| 49> 
| 50> * xyzfile 0 1 geo_opt_tzvp.xyz
| 51> 
| 52>                          ****END OF INPUT****
================================================================================


                 $$$$$$$$$$$$$$$$$$$$$$$$$$$$$$$$$$$$$$$$$$$$$$ 
                 $ THERE ARE  2 JOBS TO BE PROCESSED THIS RUN $
                 $$$$$$$$$$$$$$$$$$$$$$$$$$$$$$$$$$$$$$$$$$$$$$ 




                 $$$$$$$$$$$$$$$$  JOB NUMBER  1 $$$$$$$$$$$$$$


                       *****************************
                       * Geometry Optimization Run *
                       *****************************

Geometry optimization settings:
Update method            Update   .... BFGS
Choice of coordinates    CoordSys .... (2022) Redundant Internals
Initial Hessian          InHess   .... Almloef's Model
Max. no of cycles        MaxIter  .... 96

Convergence Tolerances:
Energy Change            TolE     ....  5.0000e-06 Eh
Max. Gradient            TolMAXG  ....  3.0000e-04 Eh/bohr
RMS Gradient             TolRMSG  ....  1.0000e-04 Eh/bohr
Max. Displacement        TolMAXD  ....  4.0000e-03 bohr
RMS Displacement         TolRMSD  ....  2.0000e-03 bohr
Strict Convergence                .... False

------------------------------------------------------------------------------
                        ORCA OPTIMIZATION COORDINATE SETUP
------------------------------------------------------------------------------

The optimization will be done in redundant internal coordinates (2022)
Making redundant internal coordinates   ...  (2022 redundants) done
Evaluating the initial hessian          ...  (Almloef) done
Evaluating the coordinates              ...  done
Calculating the B-matrix                .... done
Calculating the G-matrix                .... done
Diagonalizing the G-matrix              .... done
Small eigenvalue found = 2.480e-03
Small eigenvalue found = 1.204e-02
Small eigenvalue found = 1.480e-02
Small eigenvalue found = 2.344e-02
The first mode is                       ....   55
The number of degrees of freedom        ....   90

    -----------------------------------------------------------------
                    Redundant Internal Coordinates


    -----------------------------------------------------------------
         Definition                    Initial Value    Approx d2E/dq
    -----------------------------------------------------------------
      1. B(C   1,C   0)                  1.5323         0.370485   
      2. B(C   2,C   1)                  1.5335         0.368769   
      3. B(C   3,C   2)                  1.5331         0.369284   
      4. B(C   4,C   3)                  1.5335         0.368772   
      5. B(C   5,C   4)                  1.5334         0.369000   
      6. B(C   6,C   5)                  1.5335         0.368776   
      7. B(C   7,C   6)                  1.5331         0.369278   
      8. B(C   8,C   7)                  1.5335         0.368784   
      9. B(C   9,C   8)                  1.5323         0.370491   
     10. B(H  10,C   0)                  1.1002         0.346847   
     11. B(H  11,C   0)                  1.1013         0.345508   
     12. B(H  12,C   0)                  1.1013         0.345487   
     13. B(H  13,C   1)                  1.1037         0.342398   
     14. B(H  14,C   1)                  1.1037         0.342424   
     15. B(H  15,C   2)                  1.1048         0.340982   
     16. B(H  16,C   2)                  1.1049         0.340932   
     17. B(H  17,C   3)                  1.1047         0.341136   
     18. B(H  18,C   3)                  1.1048         0.341082   
     19. B(H  19,C   4)                  1.1047         0.341177   
     20. B(H  20,C   4)                  1.1047         0.341109   
     21. B(H  21,C   5)                  1.1047         0.341166   
     22. B(H  22,C   5)                  1.1047         0.341114   
     23. B(H  23,C   6)                  1.1047         0.341144   
     24. B(H  24,C   6)                  1.1048         0.341082   
     25. B(H  25,C   7)                  1.1049         0.340974   
     26. B(H  26,C   7)                  1.1049         0.340933   
     27. B(H  27,C   8)                  1.1037         0.342409   
     28. B(H  28,C   8)                  1.1037         0.342414   
     29. B(H  29,C   9)                  1.1013         0.345496   
     30. B(H  30,C   9)                  1.1002         0.346837   
     31. B(H  31,C   9)                  1.1013         0.345495   
     32. A(C   1,C   0,H  12)          111.1063         0.321685   
     33. A(C   1,C   0,H  11)          111.0442         0.321688   
     34. A(H  11,C   0,H  12)          107.5695         0.287092   
     35. A(C   1,C   0,H  10)          111.5158         0.321892   
     36. A(H  10,C   0,H  11)          107.7222         0.287268   
     37. A(H  10,C   0,H  12)          107.7024         0.287266   
     38. A(H  13,C   1,H  14)          106.0951         0.286289   
     39. A(C   2,C   1,H  14)          109.1160         0.320972   
     40. A(C   0,C   1,H  14)          109.5328         0.321216   
     41. A(C   0,C   1,H  13)          109.4825         0.321212   
     42. A(C   0,C   1,C   2)          113.2669         0.362035   
     43. A(C   2,C   1,H  13)          109.0952         0.320969   
     44. A(C   3,C   2,H  15)          109.2772         0.320824   
     45. A(C   3,C   2,H  16)          109.2563         0.320817   
     46. A(C   1,C   2,H  16)          109.1274         0.320743   
     47. A(C   1,C   2,H  15)          109.1593         0.320751   
     48. A(C   1,C   2,C   3)          113.6588         0.361834   
     49. A(H  15,C   2,H  16)          106.0847         0.285910   
     50. A(C   4,C   3,H  18)          109.1997         0.320767   
     51. A(C   4,C   3,H  17)          109.2001         0.320775   
     52. A(C   2,C   3,C   4)          113.6624         0.361835   
     53. A(C   2,C   3,H  17)          109.1912         0.320848   
     54. A(C   2,C   3,H  18)          109.2083         0.320840   
     55. A(H  17,C   3,H  18)          106.1031         0.285949   
     56. A(C   5,C   4,H  19)          109.2150         0.320814   
     57. A(C   3,C   4,H  19)          109.2135         0.320781   
     58. A(C   3,C   4,C   5)          113.6372         0.361787   
     59. A(C   5,C   4,H  20)          109.2055         0.320803   
     60. A(C   3,C   4,H  20)          109.1933         0.320771   
     61. A(H  19,C   4,H  20)          106.1020         0.285958   
     62. A(C   4,C   5,C   6)          113.6399         0.361788   
     63. A(C   6,C   5,H  22)          109.1957         0.320772   
     64. A(C   4,C   5,H  22)          109.2159         0.320804   
     65. A(C   6,C   5,H  21)          109.2059         0.320780   
     66. A(C   4,C   5,H  21)          109.2066         0.320812   
     67. A(H  21,C   5,H  22)          106.1023         0.285957   
     68. A(C   5,C   6,C   7)          113.6611         0.361834   
     69. A(H  23,C   6,H  24)          106.1025         0.285950   
     70. A(C   7,C   6,H  24)          109.1998         0.320839   
     71. A(C   5,C   6,H  24)          109.1973         0.320767   
     72. A(C   7,C   6,H  23)          109.1966         0.320848   
     73. A(C   5,C   6,H  23)          109.2077         0.320777   
     74. A(C   6,C   7,C   8)          113.6600         0.361836   
     75. A(H  25,C   7,H  26)          106.0844         0.285909   
     76. A(C   8,C   7,H  26)          109.1285         0.320746   
     77. A(C   6,C   7,H  26)          109.2657         0.320816   
     78. A(C   8,C   7,H  25)          109.1537         0.320752   
     79. A(C   6,C   7,H  25)          109.2712         0.320822   
     80. A(H  27,C   8,H  28)          106.0952         0.286289   
     81. A(C   9,C   8,H  28)          109.5291         0.321216   
     82. A(C   7,C   8,H  28)          109.1151         0.320973   
     83. A(C   9,C   8,H  27)          109.4779         0.321215   
     84. A(C   7,C   8,H  27)          109.1012         0.320972   
     85. A(C   7,C   8,C   9)          113.2700         0.362038   
     86. A(H  30,C   9,H  31)          107.6994         0.287266   
     87. A(H  29,C   9,H  31)          107.5729         0.287092   
     88. A(C   8,C   9,H  31)          111.1103         0.321687   
     89. A(H  29,C   9,H  30)          107.7155         0.287266   
     90. A(C   8,C   9,H  30)          111.5134         0.321891   
     91. A(C   8,C   9,H  29)          111.0484         0.321687   
     92. D(H  13,C   1,C   0,H  10)     58.0694         0.010971   
     93. D(C   2,C   1,C   0,H  10)   -179.9356         0.010971   
     94. D(H  13,C   1,C   0,H  11)    -62.0805         0.010971   
     95. D(C   2,C   1,C   0,H  12)    -59.7687         0.010971   
     96. D(H  13,C   1,C   0,H  12)    178.2364         0.010971   
     97. D(C   2,C   1,C   0,H  11)     59.9144         0.010971   
     98. D(H  15,C   2,C   1,C   0)     57.9327         0.010876   
     99. D(C   3,C   2,C   1,C   0)   -179.8058         0.010876   
    100. D(H  15,C   2,C   1,H  14)    -64.3580         0.010876   
    101. D(H  15,C   2,C   1,H  13)   -179.8563         0.010876   
    102. D(C   3,C   2,C   1,H  13)    -57.5947         0.010876   
    103. D(C   3,C   2,C   1,H  14)     57.9035         0.010876   
    104. D(C   4,C   3,C   2,H  15)    -57.7482         0.010904   
    105. D(C   4,C   3,C   2,C   1)   -179.9446         0.010904   
    106. D(C   4,C   3,C   2,H  16)     57.9156         0.010904   
    107. D(H  17,C   3,C   2,H  15)   -179.9364         0.010904   
    108. D(H  17,C   3,C   2,H  16)    -64.2726         0.010904   
    109. D(H  17,C   3,C   2,C   1)     57.8672         0.010904   
    110. D(H  19,C   4,C   3,H  18)    -64.2058         0.010876   
    111. D(H  19,C   4,C   3,H  17)   -179.8175         0.010876   
    112. D(H  19,C   4,C   3,C   2)     57.9993         0.010876   
    113. D(C   5,C   4,C   3,H  17)    -57.6110         0.010876   
    114. D(C   5,C   4,C   3,C   2)   -179.7942         0.010876   
    115. D(C   5,C   4,C   3,H  18)     58.0007         0.010876   
    116. D(H  21,C   5,C   4,H  20)    -64.2694         0.010888   
    117. D(H  21,C   5,C   4,H  19)   -179.8912         0.010888   
    118. D(H  21,C   5,C   4,C   3)     57.9032         0.010888   
    119. D(C   6,C   5,C   4,H  20)     57.9221         0.010888   
    120. D(C   6,C   5,C   4,H  19)    -57.6996         0.010888   
    121. D(C   6,C   5,C   4,C   3)   -179.9053         0.010888   
    122. D(C   7,C   6,C   5,C   4)   -179.8422         0.010876   
    123. D(H  23,C   6,C   5,H  22)    -64.2334         0.010876   
    124. D(H  23,C   6,C   5,H  21)   -179.8451         0.010876   
    125. D(H  23,C   6,C   5,C   4)     57.9630         0.010876   
    126. D(C   7,C   6,C   5,H  22)     57.9614         0.010876   
    127. D(C   7,C   6,C   5,H  21)    -57.6503         0.010876   
    128. D(H  25,C   7,C   6,H  24)    -64.2263         0.010904   
    129. D(H  25,C   7,C   6,H  23)   -179.8355         0.010904   
    130. D(H  25,C   7,C   6,C   5)     57.9636         0.010904   
    131. D(C   8,C   7,C   6,H  24)     57.9593         0.010904   
    132. D(C   8,C   7,C   6,H  23)    -57.6498         0.010904   
    133. D(C   8,C   7,C   6,C   5)   -179.8508         0.010904   
    134. D(H  27,C   8,C   7,H  26)    -64.3609         0.010876   
    135. D(H  27,C   8,C   7,H  25)   -179.8855         0.010876   
    136. D(H  27,C   8,C   7,C   6)     57.8639         0.010876   
    137. D(C   9,C   8,C   7,H  26)     57.8506         0.010876   
    138. D(C   9,C   8,C   7,H  25)    -57.6739         0.010876   
    139. D(C   9,C   8,C   7,C   6)   -179.9245         0.010876   
    140. D(H  30,C   9,C   8,H  28)     58.0088         0.010971   
    141. D(H  30,C   9,C   8,H  27)    -57.9332         0.010971   
    142. D(H  30,C   9,C   8,C   7)   -179.9346         0.010971   
    143. D(H  29,C   9,C   8,H  28)    178.1515         0.010971   
    144. D(H  29,C   9,C   8,H  27)     62.2095         0.010971   
    145. D(H  29,C   9,C   8,C   7)    -59.7919         0.010971   
    -----------------------------------------------------------------

Number of atoms                         .... 32
Number of degrees of freedom            .... 145


         *************************************************************
         *                GEOMETRY OPTIMIZATION CYCLE   1            *
         *************************************************************
---------------------------------
CARTESIAN COORDINATES (ANGSTROEM)
---------------------------------
  C      0.921345    0.087843   -0.090833
  C      2.452984    0.073294   -0.049683
  C      3.019525   -0.072561    1.367870
  C      4.551746   -0.083424    1.419949
  C      5.118372   -0.230625    2.837326
  C      6.650836   -0.236403    2.889258
  C      7.217529   -0.385911    4.306363
  C      8.749764   -0.387902    4.359258
  C      9.316437   -0.541048    5.775977
  C     10.848097   -0.540063    5.818680
  H      0.546311    0.192318   -1.119858
  H      0.517824    0.925252    0.499669
  H      0.504612   -0.843064    0.324566
  H      2.842178    1.002676   -0.500214
  H      2.831158   -0.752457   -0.676800
  H      2.632616   -1.003974    1.818940
  H      2.639408    0.752834    1.996372
  H      4.937027    0.848901    0.969670
  H      4.931019   -0.907666    0.789637
  H      4.735844   -1.164532    3.286592
  H      4.736462    0.591808    3.468371
  H      7.033158    0.698435    2.441736
  H      7.032990   -1.057575    2.256727
  H      6.837437   -1.322157    4.752886
  H      6.833197    0.433701    4.939642
  H      9.131162    0.549346    3.915626
  H      9.135383   -1.206053    3.724667
  H      8.936559   -1.478546    6.217534
  H      8.929129    0.274900    6.410324
  H     11.261027   -1.366380    5.219108
  H     11.223130   -0.652518    6.846871
  H     11.255553    0.399881    5.414598

----------------------------
CARTESIAN COORDINATES (A.U.)
----------------------------
  NO LB      ZA    FRAG     MASS         X           Y           Z
   0 C     6.0000    0    12.011    1.741089    0.165999   -0.171650
   1 C     6.0000    0    12.011    4.635468    0.138506   -0.093887
   2 C     6.0000    0    12.011    5.706075   -0.137120    2.584899
   3 C     6.0000    0    12.011    8.601553   -0.157648    2.683315
   4 C     6.0000    0    12.011    9.672322   -0.435819    5.361769
   5 C     6.0000    0    12.011   12.568258   -0.446737    5.459906
   6 C     6.0000    0    12.011   13.639153   -0.729266    8.137847
   7 C     6.0000    0    12.011   16.534658   -0.733029    8.237804
   8 C     6.0000    0    12.011   17.605514   -1.022432   10.915015
   9 C     6.0000    0    12.011   20.499933   -1.020571   10.995711
  10 H     1.0000    0     1.008    1.032378    0.363429   -2.116224
  11 H     1.0000    0     1.008    0.978546    1.748473    0.944238
  12 H     1.0000    0     1.008    0.953579   -1.593160    0.613340
  13 H     1.0000    0     1.008    5.370939    1.894783   -0.945267
  14 H     1.0000    0     1.008    5.350113   -1.421938   -1.278966
  15 H     1.0000    0     1.008    4.974924   -1.897236    3.437298
  16 H     1.0000    0     1.008    4.987758    1.422650    3.772596
  17 H     1.0000    0     1.008    9.329629    1.604189    1.832411
  18 H     1.0000    0     1.008    9.318276   -1.715240    1.492198
  19 H     1.0000    0     1.008    8.949448   -2.200647    6.210759
  20 H     1.0000    0     1.008    8.950616    1.118355    6.554271
  21 H     1.0000    0     1.008   13.290743    1.319851    4.614212
  22 H     1.0000    0     1.008   13.290424   -1.998528    4.264596
  23 H     1.0000    0     1.008   12.920884   -2.498514    8.981652
  24 H     1.0000    0     1.008   12.912871    0.819576    9.334570
  25 H     1.0000    0     1.008   17.255395    1.038113    7.399461
  26 H     1.0000    0     1.008   17.263371   -2.279109    7.038600
  27 H     1.0000    0     1.008   16.887650   -2.794046   11.749437
  28 H     1.0000    0     1.008   16.873609    0.519485   12.113757
  29 H     1.0000    0     1.008   21.280256   -2.582084    9.862685
  30 H     1.0000    0     1.008   21.208643   -1.233080   12.938711
  31 H     1.0000    0     1.008   21.269912    0.755666   10.232107

--------------------------------
INTERNAL COORDINATES (ANGSTROEM)
--------------------------------
 C      0   0   0     0.000000000000     0.00000000     0.00000000
 C      1   0   0     1.532261005040     0.00000000     0.00000000
 C      2   1   0     1.533524371048   113.26693472     0.00000000
 C      3   2   1     1.533144516363   113.65877470   180.19424042
 C      4   3   2     1.533522478505   113.66241884   180.05537399
 C      5   4   3     1.533354246944   113.63716232   180.20575553
 C      6   5   4     1.533519026120   113.63992957   180.09470386
 C      7   6   5     1.533149358270   113.66109972   180.15778710
 C      8   7   6     1.533513598604   113.65999799   180.14921620
 C      9   8   7     1.532256094381   113.26997843   180.07545537
 H      1   2   3     1.100207597941   111.51575071   180.06439606
 H      1   2   3     1.101260621654   111.04419157    59.91444117
 H      1   2   3     1.101276542617   111.10626320   300.23133361
 H      2   1   3     1.103721462667   109.48254003   238.00503928
 H      2   1   3     1.103700946116   109.53284889   122.05835536
 H      3   2   1     1.104849958453   109.15931748    57.93268044
 H      3   2   1     1.104889419751   109.12740427   302.40537786
 H      4   3   2     1.104726739349   109.19120393    57.86719428
 H      4   3   2     1.104770154648   109.20834869   302.25560666
 H      5   4   3     1.104694418296   109.21352027    57.99926178
 H      5   4   3     1.104748585941   109.19331742   302.38504832
 H      6   5   4     1.104702898926   109.20663926    57.90317822
 H      6   5   4     1.104744461890   109.21591923   302.27986285
 H      7   6   5     1.104720749238   109.20766473    57.96296601
 H      7   6   5     1.104770056948   109.19728886   302.34911298
 H      8   7   6     1.104856046778   109.27124369    57.96359409
 H      8   7   6     1.104888582700   109.26567392   302.29821620
 H      9   8   7     1.103712959910   109.10122435    57.86392002
 H      9   8   7     1.103708560914   109.11512567   302.36280249
 H     10   9   8     1.101270050498   111.04841423   300.20805449
 H     10   9   8     1.100215127798   111.51339400   180.06536494
 H     10   9   8     1.101270790117   111.11034017    59.90095258

---------------------------
INTERNAL COORDINATES (A.U.)
---------------------------
 C      0   0   0     0.000000000000     0.00000000     0.00000000
 C      1   0   0     2.895553665212     0.00000000     0.00000000
 C      2   1   0     2.897941080974   113.26693472     0.00000000
 C      3   2   1     2.897223259649   113.65877470   180.19424042
 C      4   3   2     2.897937504587   113.66241884   180.05537399
 C      5   4   3     2.897619593010   113.63716232   180.20575553
 C      6   5   4     2.897930980524   113.63992957   180.09470386
 C      7   6   5     2.897232409528   113.66109972   180.15778710
 C      8   7   6     2.897920724005   113.65999799   180.14921620
 C      9   8   7     2.895544385411   113.26997843   180.07545537
 H      1   2   3     2.079091050568   111.51575071   180.06439606
 H      1   2   3     2.081080976998   111.04419157    59.91444117
 H      1   2   3     2.081111063257   111.10626320   300.23133361
 H      2   1   3     2.085731292572   109.48254003   238.00503928
 H      2   1   3     2.085692521908   109.53284889   122.05835536
 H      3   2   1     2.087863840551   109.15931748    57.93268044
 H      3   2   1     2.087938411597   109.12740427   302.40537786
 H      4   3   2     2.087630990189   109.19120393    57.86719428
 H      4   3   2     2.087713033215   109.20834869   302.25560666
 H      5   4   3     2.087569912251   109.21352027    57.99926178
 H      5   4   3     2.087672274264   109.19331742   302.38504832
 H      6   5   4     2.087585938319   109.20663926    57.90317822
 H      6   5   4     2.087664480938   109.21591923   302.27986285
 H      7   6   5     2.087619670520   109.20766473    57.96296601
 H      7   6   5     2.087712848588   109.19728886   302.34911298
 H      8   7   6     2.087875345817   109.27124369    57.96359409
 H      8   7   6     2.087936829800   109.26567392   302.29821620
 H      9   8   7     2.085715224689   109.10122435    57.86392002
 H      9   8   7     2.085706911792   109.11512567   302.36280249
 H     10   9   8     2.081098794931   111.04841423   300.20805449
 H     10   9   8     2.079105279935   111.51339400   180.06536494
 H     10   9   8     2.081100192609   111.11034017    59.90095258

---------------------
BASIS SET INFORMATION
---------------------
There are 2 groups of distinct atoms

 Group   1 Type C   : 11s6p2d1f contracted to 5s3p2d1f pattern {62111/411/11/1}
 Group   2 Type H   : 5s1p contracted to 3s1p pattern {311/1}

Atom   0C    basis set group =>   1
Atom   1C    basis set group =>   1
Atom   2C    basis set group =>   1
Atom   3C    basis set group =>   1
Atom   4C    basis set group =>   1
Atom   5C    basis set group =>   1
Atom   6C    basis set group =>   1
Atom   7C    basis set group =>   1
Atom   8C    basis set group =>   1
Atom   9C    basis set group =>   1
Atom  10H    basis set group =>   2
Atom  11H    basis set group =>   2
Atom  12H    basis set group =>   2
Atom  13H    basis set group =>   2
Atom  14H    basis set group =>   2
Atom  15H    basis set group =>   2
Atom  16H    basis set group =>   2
Atom  17H    basis set group =>   2
Atom  18H    basis set group =>   2
Atom  19H    basis set group =>   2
Atom  20H    basis set group =>   2
Atom  21H    basis set group =>   2
Atom  22H    basis set group =>   2
Atom  23H    basis set group =>   2
Atom  24H    basis set group =>   2
Atom  25H    basis set group =>   2
Atom  26H    basis set group =>   2
Atom  27H    basis set group =>   2
Atom  28H    basis set group =>   2
Atom  29H    basis set group =>   2
Atom  30H    basis set group =>   2
Atom  31H    basis set group =>   2
---------------------------------
AUXILIARY/J BASIS SET INFORMATION
---------------------------------
There are 2 groups of distinct atoms

 Group   1 Type C   : 12s5p4d2f1g contracted to 6s4p3d1f1g pattern {711111/2111/211/2/1}
 Group   2 Type H   : 5s2p1d contracted to 3s1p1d pattern {311/2/1}

Atom   0C    basis set group =>   1
Atom   1C    basis set group =>   1
Atom   2C    basis set group =>   1
Atom   3C    basis set group =>   1
Atom   4C    basis set group =>   1
Atom   5C    basis set group =>   1
Atom   6C    basis set group =>   1
Atom   7C    basis set group =>   1
Atom   8C    basis set group =>   1
Atom   9C    basis set group =>   1
Atom  10H    basis set group =>   2
Atom  11H    basis set group =>   2
Atom  12H    basis set group =>   2
Atom  13H    basis set group =>   2
Atom  14H    basis set group =>   2
Atom  15H    basis set group =>   2
Atom  16H    basis set group =>   2
Atom  17H    basis set group =>   2
Atom  18H    basis set group =>   2
Atom  19H    basis set group =>   2
Atom  20H    basis set group =>   2
Atom  21H    basis set group =>   2
Atom  22H    basis set group =>   2
Atom  23H    basis set group =>   2
Atom  24H    basis set group =>   2
Atom  25H    basis set group =>   2
Atom  26H    basis set group =>   2
Atom  27H    basis set group =>   2
Atom  28H    basis set group =>   2
Atom  29H    basis set group =>   2
Atom  30H    basis set group =>   2
Atom  31H    basis set group =>   2


           ************************************************************
           *        Program running with 64 parallel MPI-processes    *
           *              working on a common directory               *
           ************************************************************
------------------------------------------------------------------------------
                             ORCA STARTUP CALCULATIONS
                           -- RI-GTO INTEGRALS CHOSEN --
------------------------------------------------------------------------------
------------------------------------------------------------------------------
                   ___                                                        
                  /   \      - P O W E R E D   B Y -                         
                 /     \                                                     
                 |  |  |   _    _      __       _____    __    __             
                 |  |  |  | |  | |    /  \     |  _  \  |  |  /  |          
                  \  \/   | |  | |   /    \    | | | |  |  | /  /          
                 / \  \   | |__| |  /  /\  \   | |_| |  |  |/  /          
                |  |  |   |  __  | /  /__\  \  |    /   |      \           
                |  |  |   | |  | | |   __   |  |    \   |  |\   \          
                \     /   | |  | | |  |  |  |  | |\  \  |  | \   \       
                 \___/    |_|  |_| |__|  |__|  |_| \__\ |__|  \__/        
                                                                              
                      - O R C A' S   B I G   F R I E N D -                    
                                      &                                       
                       - I N T E G R A L  F E E D E R -                       
                                                                              
 v1 FN, 2020, v2 2021, v3 2022-2024                                           
------------------------------------------------------------------------------


----------------------
SHARK INTEGRAL PACKAGE
----------------------

Number of atoms                             ...     32
Number of basis functions                   ...    442
Number of shells                            ...    198
Maximum angular momentum                    ...      3
Integral batch strategy                     ... SHARK/LIBINT Hybrid
RI-J (if used) integral strategy            ... SPLIT-RIJ (Revised 2003 algorithm where possible)
Printlevel                                  ...      1
Contraction scheme used                     ... SEGMENTED contraction
Prescreening option                         ... SCHWARTZ
   Thresh                                   ... 2.500e-11
   Tcut                                     ... 2.500e-12
   Tpresel                                  ... 2.500e-12 
Coulomb Range Separation                    ... NOT USED
Exchange Range Separation                   ... NOT USED
Multipole approximations                    ... NOT USED
Finite Nucleus Model                        ... NOT USED
CABS basis                                  ... NOT available
Auxiliary Coulomb fitting basis             ... AVAILABLE
   # of basis functions in Aux-J            ...    732
   # of shells in Aux-J                     ...    260
   Maximum angular momentum in Aux-J        ...      4
Auxiliary J/K fitting basis                 ... NOT available
Auxiliary Correlation fitting basis         ... NOT available
Auxiliary 'external' fitting basis          ... NOT available

Checking pre-screening integrals            ... done (  0.0 sec) Dimension = 198
Check shell pair data                       ... done (  0.0 sec)
Shell pair information
Shell pair cut-off parameter TPreSel        ...   2.5e-12
Total number of shell pairs                 ...     19701
Shell pairs after pre-screening             ...     14120
Total number of primitive shell pairs       ...     55564
Primitive shell pairs kept                  ...     29256
          la=0 lb=0:   4895 shell pairs
          la=1 lb=0:   4342 shell pairs
          la=1 lb=1:    996 shell pairs
          la=2 lb=0:   1656 shell pairs
          la=2 lb=1:    742 shell pairs
          la=2 lb=2:    149 shell pairs
          la=3 lb=0:    806 shell pairs
          la=3 lb=1:    356 shell pairs
          la=3 lb=2:    138 shell pairs
          la=3 lb=3:     40 shell pairs

Calculating one electron integrals          ... done (  0.0 sec)
Calculating RI/J V-Matrix + Cholesky decomp.... done (  0.0 sec)
Calculating Nuclear repulsion               ... done (  0.0 sec) ENN=    515.607596813173 Eh

Diagonalization of the overlap matrix:
Smallest eigenvalue                        ... 5.345e-05
Time for diagonalization                   ...    0.025 sec
Threshold for overlap eigenvalues          ... 1.000e-07
Number of eigenvalues below threshold      ... 0
Time for construction of square roots      ...    0.013 sec
Total time needed                          ...    0.043 sec

-------------------
DFT GRID GENERATION
-------------------

General Integration Accuracy     IntAcc      ... 4.388
Radial Grid Type                 RadialGrid  ... OptM3 with GC (2021)
Angular Grid (max. ang.)         AngularGrid ... 4 (Lebedev-302)
Angular grid pruning method      GridPruning ... 4 (adaptive)
Weight generation scheme         WeightScheme... mBecke (2022)
Basis function cutoff            BFCut       ... 1.0000e-11
Integration weight cutoff        WCut        ... 1.0000e-14
Partially contracted basis set               ... off
Rotationally invariant grid construction     ... off
Angular grids for H and He will be reduced by one unit

Total number of grid points                  ...   130173
Total number of batches                      ...     2052
Average number of points per batch           ...       63
Average number of grid points per atom       ...     4068
Initializing property integral containers    ... done (  0.0 sec)

SHARK setup successfully completed in   1.2 seconds

Maximum memory used throughout the entire STARTUP-calculation: 38.6 MB


           ************************************************************
           *        Program running with 64 parallel MPI-processes    *
           *              working on a common directory               *
           ************************************************************
-------------------------------------------------------------------------------
                                 ORCA GUESS
                   Start orbitals & Density for SCF / CASSCF
-------------------------------------------------------------------------------

------------
SCF SETTINGS
------------
Hamiltonian:
 Density Functional     Method          .... DFT(GTOs)
 Exchange Functional    Exchange        .... B88
   X-Alpha parameter    XAlpha          ....  0.666667
   Becke's b parameter  XBeta           ....  0.004200
 Correlation Functional Correlation     .... P86
 LDA part of GGA corr.  LDAOpt          .... PW91-LDA
 Gradients option       PostSCFGGA      .... off
   NL short-range parameter             ....  4.400000
 RI-approximation to the Coulomb term is turned on
   Number of AuxJ basis functions       .... 732


General Settings:
 Integral files         IntName         .... geo_opt_tzvp
 Hartree-Fock type      HFTyp           .... RHF
 Total Charge           Charge          ....    0
 Multiplicity           Mult            ....    1
 Number of Electrons    NEL             ....   82
 Basis Dimension        Dim             ....  442
 Nuclear Repulsion      ENuc            ....    515.6075968132 Eh

Convergence Acceleration:
 AO-DIIS                CNVDIIS         .... on
   Start iteration      DIISMaxIt       ....    12
   Startup error        DIISStart       ....  0.200000
   # of expansion vecs  DIISMaxEq       ....     5
   Bias factor          DIISBfac        ....   1.050
   Max. coefficient     DIISMaxC        ....  10.000
 MO-DIIS                CNVKDIIS        .... off
 Trust-Rad. Augm. Hess. CNVTRAH         .... auto
   Auto Start mean grad. ratio tolernc. ....  1.125000
   Auto Start start iteration           ....    50
   Auto Start num. interpolation iter.  ....    10
   Max. Number of Micro iterations      ....    24
   Max. Number of Macro iterations      .... Maxiter - #DIIS iter
   Number of Davidson start vectors     ....     2
   Converg. threshold    (grad. norm)   ....   1.000e-05
   Grad. Scal. Fac. for Micro threshold ....   0.100
   Minimum threshold for Micro iter.    ....   1.000e-02
   NR start threshold (gradient norm)   ....   1.000e-04
   Initial trust radius                 ....   0.400
   Minimum AH scaling param. (alpha)    ....   1.000
   Maximum AH scaling param. (alpha)    .... 1000.000
   Quad. conv. algorithm                .... NR
   White noise on init. David. guess    .... on
   Maximum white noise                  ....   0.010
   Pseudo random numbers                .... off
   Inactive MOs                         .... canonical
   Orbital update algorithm             .... Taylor
   Preconditioner                       .... Diag
   Full preconditioner red. dimension   ....   250
 SOSCF                  CNVSOSCF        .... on
   Start iteration      SOSCFMaxIt      ....   150
   Startup grad/error   SOSCFStart      ....  0.003300
   Hessian update       SOSCFHessUp     .... L-BFGS
 Level Shifting         CNVShift        .... on
   Level shift para.    LevelShift      ....    0.2500
   Turn off err/grad.   ShiftErr        ....    0.0010
 Zerner damping         CNVZerner       .... off
 Static damping         CNVDamp         .... on
   Fraction old density DampFac         ....    0.7000
   Max. Damping (<1)    DampMax         ....    0.9800
   Min. Damping (>=0)   DampMin         ....    0.0000
   Turn off err/grad.   DampErr         ....    0.1000

SCF Procedure:
 Maximum # iterations   MaxIter         ....   125
 SCF integral mode      SCFMode         .... Direct
   Integral package                     .... SHARK and LIBINT hybrid scheme
 Reset frequency        DirectResetFreq ....    20
 Integral Threshold     Thresh          ....  2.500e-11 Eh
 Primitive CutOff       TCut            ....  2.500e-12 Eh

Convergence Tolerance:
 Convergence Check Mode ConvCheckMode   .... Total+1el-Energy
 Convergence forced     ConvForced      .... 0
 Energy Change          TolE            ....  1.000e-08 Eh
 1-El. energy change                    ....  1.000e-05 Eh
 Orbital Gradient       TolG            ....  1.000e-05
 Orbital Rotation angle TolX            ....  1.000e-05
 DIIS Error             TolErr          ....  5.000e-07

------------------------------
INITIAL GUESS: MODEL POTENTIAL
------------------------------
Loading Hartree-Fock densities                     ... done
Calculating cut-offs                               ... done
Initializing the effective Hamiltonian             ... done
Setting up the integral package (SHARK)            ... done
Starting the Coulomb interaction                   ... done (   0.0 sec)
Making the grid                                    ... done (   0.2 sec)
Mapping shells                                     ... done
Starting the XC term evaluation                    ... done (   0.4 sec)
  promolecular density results
     # of electrons  =     81.983924916
     EX              =    -57.932122199
     EC              =     -2.887973539
     EX+EC           =    -60.820095737
Transforming the Hamiltonian                       ... done (   0.0 sec)
Diagonalizing the Hamiltonian                      ... done (   0.0 sec)
Back transforming the eigenvectors                 ... done (   0.0 sec)
Now organizing SCF variables                       ... done
                      ------------------
                      INITIAL GUESS DONE (   0.7 sec)
                      ------------------
             **** ENERGY FILE WAS UPDATED (geo_opt_tzvp.en.tmp) ****
Finished Guess after   3.6 sec
Maximum memory used throughout the entire GUESS-calculation: 25.8 MB


           ************************************************************
           *        Program running with 64 parallel MPI-processes    *
           *              working on a common directory               *
           ************************************************************

-------------------------------------------------------------------------------------------
                                      ORCA LEAN-SCF
                              memory conserving SCF solver
-------------------------------------------------------------------------------------------

--------------------
CPCM SOLVATION MODEL
--------------------
CPCM parameters:
  Epsilon                                         ...     INFINITY
  Refrac                                          ...       1.3300
  Rsolv                                           ...       1.3000
  Surface type                                    ... GAUSSIAN VDW
  Discretization scheme                           ... Constant charge density
    Threshold for H atoms                         ...       5.0000 (charges/Ang^2)
    Threshold for non-H atoms                     ...       5.0000 (charges/Ang^2)
  Epsilon function type                           ...         CPCM
Solvent:                                          ... CONDUCTOR
Radii:
  Scheme                                          ... Element-dependent radii
  Radius for C  used is    3.7795 Bohr (=   2.0000 Ang.)
  Radius for H  used is    2.4566 Bohr (=   1.3000 Ang.)
Calculating surface                               ...        done! (  0.0s)
Cavity surface points                             ...         1872
Cavity Volume                                     ...    1483.1588
Cavity Surface-area                               ...     885.3344
Calculating surface distance matrix               ...        done! (  0.0s)
Performing Cholesky decomposition & store         ...        done! (  0.3s)
Overall time for CPCM initialization              ...                 0.3s

----------------------------------------D-I-I-S--------------------------------------------
Iteration    Energy (Eh)           Delta-E    RMSDP     MaxDP     DIISErr   Damp  Time(sec)
-------------------------------------------------------------------------------------------
               ***  Starting incremental Fock matrix formation  ***
    1    -394.0952262400879818     0.00e+00  1.15e-03  3.48e-02  1.80e-01  0.700   1.9
    2    -394.2740585019184891    -1.79e-01  8.30e-04  2.12e-02  8.64e-02  0.700   1.9
                               ***Turning on AO-DIIS***
    3    -394.3377837978725893    -6.37e-02  3.61e-04  7.39e-03  2.45e-02  0.700   1.9
    4    -394.3739954641174563    -3.62e-02  5.65e-04  1.32e-02  9.57e-03  0.000   1.9
    5    -394.4559837515648724    -8.20e-02  1.73e-04  5.42e-03  1.03e-02  0.000   1.9
                              *** Initializing SOSCF ***
---------------------------------------S-O-S-C-F--------------------------------------
Iteration    Energy (Eh)           Delta-E    RMSDP     MaxDP     MaxGrad    Time(sec)
--------------------------------------------------------------------------------------
    6    -394.4572430915632140    -1.26e-03  9.11e-05  3.36e-03  2.64e-03     2.0
               *** Restarting incremental Fock matrix formation ***
    7    -394.4573522669024896    -1.09e-04  7.79e-05  2.76e-03  5.40e-04     1.8
    8    -394.4573520006131275     2.66e-07  1.34e-05  4.21e-04  4.05e-04     1.8
    9    -394.4573626163363542    -1.06e-05  7.09e-06  2.61e-04  3.85e-05     1.8
   10    -394.4573627484181770    -1.32e-07  1.36e-06  4.48e-05  1.67e-05     1.8
   11    -394.4573627633797059    -1.50e-08  5.83e-07  2.04e-05  6.16e-06     1.8
   12    -394.4573627607022672     2.68e-09  2.76e-07  8.79e-06  5.84e-06     1.8
                 **** Energy Check signals convergence ****

               *****************************************************
               *                     SUCCESS                       *
               *           SCF CONVERGED AFTER  12 CYCLES          *
               *****************************************************

             **** ENERGY FILE WAS UPDATED (geo_opt_tzvp.en.tmp) ****

----------------
TOTAL SCF ENERGY
----------------

Total Energy       :       -394.45736276070227 Eh          -10733.73053 eV

Components:
Nuclear Repulsion  :        515.60759681317347 Eh           14030.39600 eV
Electronic Energy  :       -910.06304401240732 Eh          -24764.07441 eV
One Electron Energy:      -1551.23052857238872 Eh          -42211.12865 eV
Two Electron Energy:        641.16748455998140 Eh           17447.05425 eV
CPCM Dielectric    :         -0.00191556146844 Eh              -0.05213 eV

Virial components:
Potential Energy   :       -786.63295793048223 Eh          -21405.37101 eV
Kinetic Energy     :        392.17559516977997 Eh           10671.64048 eV
Virial Ratio       :          2.00581822943351

DFT components:
N(Alpha)           :       41.000214241344 electrons
N(Beta)            :       41.000214241344 electrons
N(Total)           :       82.000428482688 electrons
E(X)               :      -59.666485860738 Eh       
E(C)               :       -2.871582237617 Eh       
E(XC)              :      -62.538068098354 Eh       

CPCM Solvation Model Properties:
Surface-charge          :         -0.04772466815414
Corrected charge        :          0.00000000000000
Outlying charge corr.   :          0.00013732681628 Eh               0.00374 eV
Free-energy (cav+disp)  :  This term is not implemented in the current solvation scheme

---------------
SCF CONVERGENCE
---------------

  Last Energy change         ...   -2.6774e-09  Tolerance :   1.0000e-08
  Last MAX-Density change    ...    8.7856e-06  Tolerance :   1.0000e-07
  Last RMS-Density change    ...    2.7640e-07  Tolerance :   5.0000e-09
  Last DIIS Error            ...    2.6414e-03  Tolerance :   5.0000e-07
  Last Orbital Gradient      ...    5.8365e-06  Tolerance :   1.0000e-05
  Last Orbital Rotation      ...    5.7066e-06  Tolerance :   1.0000e-05


----------------
ORBITAL ENERGIES
----------------

  NO   OCC          E(Eh)            E(eV) 
   0   2.0000      -9.885503      -268.9982 
   1   2.0000      -9.885501      -268.9982 
   2   2.0000      -9.883202      -268.9356 
   3   2.0000      -9.883188      -268.9352 
   4   2.0000      -9.883135      -268.9338 
   5   2.0000      -9.883086      -268.9324 
   6   2.0000      -9.883056      -268.9316 
   7   2.0000      -9.883025      -268.9308 
   8   2.0000      -9.879091      -268.8237 
   9   2.0000      -9.879090      -268.8237 
  10   2.0000      -0.734395       -19.9839 
  11   2.0000      -0.719724       -19.5847 
  12   2.0000      -0.695429       -18.9236 
  13   2.0000      -0.662513       -18.0279 
  14   2.0000      -0.622679       -16.9440 
  15   2.0000      -0.578771       -15.7492 
  16   2.0000      -0.537085       -14.6148 
  17   2.0000      -0.514918       -14.0116 
  18   2.0000      -0.510026       -13.8785 
  19   2.0000      -0.508182       -13.8283 
  20   2.0000      -0.431356       -11.7378 
  21   2.0000      -0.417929       -11.3724 
  22   2.0000      -0.396557       -10.7909 
  23   2.0000      -0.385897       -10.5008 
  24   2.0000      -0.380391       -10.3510 
  25   2.0000      -0.369393       -10.0517 
  26   2.0000      -0.367171        -9.9912 
  27   2.0000      -0.346492        -9.4285 
  28   2.0000      -0.339733        -9.2446 
  29   2.0000      -0.337637        -9.1876 
  30   2.0000      -0.315210        -8.5773 
  31   2.0000      -0.311887        -8.4869 
  32   2.0000      -0.295482        -8.0405 
  33   2.0000      -0.294690        -8.0189 
  34   2.0000      -0.290445        -7.9034 
  35   2.0000      -0.283186        -7.7059 
  36   2.0000      -0.279297        -7.6001 
  37   2.0000      -0.278214        -7.5706 
  38   2.0000      -0.274112        -7.4590 
  39   2.0000      -0.273939        -7.4542 
  40   2.0000      -0.257452        -7.0056 
  41   0.0000       0.023740         0.6460 
  42   0.0000       0.030233         0.8227 
  43   0.0000       0.039124         1.0646 
  44   0.0000       0.050561         1.3758 
  45   0.0000       0.050653         1.3783 
  46   0.0000       0.054573         1.4850 
  47   0.0000       0.065144         1.7727 
  48   0.0000       0.067546         1.8380 
  49   0.0000       0.080414         2.1882 
  50   0.0000       0.089482         2.4349 
  51   0.0000       0.094690         2.5766 
*Only the first 10 virtual orbitals were printed.

                    ********************************
                    * MULLIKEN POPULATION ANALYSIS *
                    ********************************

-----------------------
MULLIKEN ATOMIC CHARGES
-----------------------
   0 C :   -0.381647
   1 C :   -0.173302
   2 C :   -0.208998
   3 C :   -0.193663
   4 C :   -0.197846
   5 C :   -0.197868
   6 C :   -0.193637
   7 C :   -0.208988
   8 C :   -0.173326
   9 C :   -0.381647
  10 H :    0.128663
  11 H :    0.119733
  12 H :    0.119525
  13 H :    0.099924
  14 H :    0.100034
  15 H :    0.097503
  16 H :    0.097679
  17 H :    0.097755
  18 H :    0.097923
  19 H :    0.098296
  20 H :    0.098432
  21 H :    0.098279
  22 H :    0.098445
  23 H :    0.097783
  24 H :    0.097895
  25 H :    0.097508
  26 H :    0.097662
  27 H :    0.100006
  28 H :    0.099963
  29 H :    0.119673
  30 H :    0.128659
  31 H :    0.119583
Sum of atomic charges:   -0.0000000

--------------------------------
MULLIKEN REDUCED ORBITAL CHARGES
--------------------------------
  0 C s       :     3.298350  s :     3.298350
      pz      :     1.056176  p :     3.032705
      px      :     0.925531
      py      :     1.050999
      dz2     :     0.003437  d :     0.047345
      dxz     :     0.017899
      dyz     :     0.002719
      dx2y2   :     0.002851
      dxy     :     0.020440
      f0      :     0.000714  f :     0.003246
      f+1     :     0.000320
      f-1     :     0.000114
      f+2     :     0.000710
      f-2     :    -0.000095
      f+3     :     0.000662
      f-3     :     0.000821

  1 C s       :     3.224634  s :     3.224634
      pz      :     0.924236  p :     2.851738
      px      :     0.922514
      py      :     1.004988
      dz2     :     0.011232  d :     0.091476
      dxz     :     0.029536
      dyz     :     0.020834
      dx2y2   :     0.009901
      dxy     :     0.019973
      f0      :     0.001335  f :     0.005454
      f+1     :     0.000714
      f-1     :     0.000727
      f+2     :     0.000991
      f-2     :     0.000163
      f+3     :     0.000641
      f-3     :     0.000884

  2 C s       :     3.231480  s :     3.231480
      pz      :     0.944608  p :     2.884754
      px      :     0.926784
      py      :     1.013362
      dz2     :     0.011608  d :     0.087345
      dxz     :     0.025750
      dyz     :     0.021804
      dx2y2   :     0.008813
      dxy     :     0.019370
      f0      :     0.001306  f :     0.005419
      f+1     :     0.000714
      f-1     :     0.000732
      f+2     :     0.000990
      f-2     :     0.000188
      f+3     :     0.000644
      f-3     :     0.000845

  3 C s       :     3.218479  s :     3.218479
      pz      :     0.941898  p :     2.882028
      px      :     0.927925
      py      :     1.012206
      dz2     :     0.011726  d :     0.087709
      dxz     :     0.025829
      dyz     :     0.021840
      dx2y2   :     0.008959
      dxy     :     0.019355
      f0      :     0.001311  f :     0.005447
      f+1     :     0.000722
      f-1     :     0.000732
      f+2     :     0.000998
      f-2     :     0.000194
      f+3     :     0.000640
      f-3     :     0.000851

  4 C s       :     3.222110  s :     3.222110
      pz      :     0.941450  p :     2.882704
      px      :     0.927451
      py      :     1.013802
      dz2     :     0.011769  d :     0.087587
      dxz     :     0.025836
      dyz     :     0.021797
      dx2y2   :     0.008944
      dxy     :     0.019241
      f0      :     0.001309  f :     0.005446
      f+1     :     0.000723
      f-1     :     0.000733
      f+2     :     0.000996
      f-2     :     0.000194
      f+3     :     0.000641
      f-3     :     0.000850

  5 C s       :     3.222132  s :     3.222132
      pz      :     0.941456  p :     2.882702
      px      :     0.927452
      py      :     1.013794
      dz2     :     0.011782  d :     0.087588
      dxz     :     0.025839
      dyz     :     0.021764
      dx2y2   :     0.008964
      dxy     :     0.019239
      f0      :     0.001309  f :     0.005446
      f+1     :     0.000723
      f-1     :     0.000732
      f+2     :     0.000996
      f-2     :     0.000193
      f+3     :     0.000641
      f-3     :     0.000851

  6 C s       :     3.218457  s :     3.218457
      pz      :     0.941951  p :     2.882024
      px      :     0.927923
      py      :     1.012150
      dz2     :     0.011769  d :     0.087709
      dxz     :     0.025845
      dyz     :     0.021764
      dx2y2   :     0.008995
      dxy     :     0.019336
      f0      :     0.001309  f :     0.005447
      f+1     :     0.000723
      f-1     :     0.000734
      f+2     :     0.000996
      f-2     :     0.000194
      f+3     :     0.000639
      f-3     :     0.000853

  7 C s       :     3.231476  s :     3.231476
      pz      :     0.944674  p :     2.884749
      px      :     0.926782
      py      :     1.013292
      dz2     :     0.011679  d :     0.087344
      dxz     :     0.025770
      dyz     :     0.021660
      dx2y2   :     0.008886
      dxy     :     0.019348
      f0      :     0.001304  f :     0.005419
      f+1     :     0.000714
      f-1     :     0.000734
      f+2     :     0.000989
      f-2     :     0.000188
      f+3     :     0.000643
      f-3     :     0.000848

  8 C s       :     3.224633  s :     3.224633
      pz      :     0.924328  p :     2.851760
      px      :     0.922516
      py      :     1.004917
      dz2     :     0.011327  d :     0.091479
      dxz     :     0.029566
      dyz     :     0.020663
      dx2y2   :     0.009981
      dxy     :     0.019942
      f0      :     0.001332  f :     0.005454
      f+1     :     0.000715
      f-1     :     0.000730
      f+2     :     0.000988
      f-2     :     0.000163
      f+3     :     0.000639
      f-3     :     0.000888

  9 C s       :     3.298341  s :     3.298341
      pz      :     1.056151  p :     3.032712
      px      :     0.925527
      py      :     1.051035
      dz2     :     0.003455  d :     0.047348
      dxz     :     0.017930
      dyz     :     0.002662
      dx2y2   :     0.002886
      dxy     :     0.020414
      f0      :     0.000708  f :     0.003246
      f+1     :     0.000323
      f-1     :     0.000122
      f+2     :     0.000704
      f-2     :    -0.000095
      f+3     :     0.000660
      f-3     :     0.000825

 10 H s       :     0.850467  s :     0.850467
      pz      :     0.010612  p :     0.020870
      px      :     0.005674
      py      :     0.004584

 11 H s       :     0.859614  s :     0.859614
      pz      :     0.006464  p :     0.020653
      px      :     0.005698
      py      :     0.008491

 12 H s       :     0.859815  s :     0.859815
      pz      :     0.005467  p :     0.020660
      px      :     0.005770
      py      :     0.009422

 13 H s       :     0.879182  s :     0.879182
      pz      :     0.005924  p :     0.020895
      px      :     0.005509
      py      :     0.009462

 14 H s       :     0.879061  s :     0.879061
      pz      :     0.007147  p :     0.020905
      px      :     0.005454
      py      :     0.008304

 15 H s       :     0.881649  s :     0.881649
      pz      :     0.005927  p :     0.020848
      px      :     0.005467
      py      :     0.009455

 16 H s       :     0.881471  s :     0.881471
      pz      :     0.007157  p :     0.020850
      px      :     0.005429
      py      :     0.008263

 17 H s       :     0.881359  s :     0.881359
      pz      :     0.005929  p :     0.020886
      px      :     0.005485
      py      :     0.009471

 18 H s       :     0.881190  s :     0.881190
      pz      :     0.007174  p :     0.020888
      px      :     0.005453
      py      :     0.008260

 19 H s       :     0.880820  s :     0.880820
      pz      :     0.005921  p :     0.020885
      px      :     0.005469
      py      :     0.009494

 20 H s       :     0.880681  s :     0.880681
      pz      :     0.007182  p :     0.020887
      px      :     0.005462
      py      :     0.008243

 21 H s       :     0.880836  s :     0.880836
      pz      :     0.005913  p :     0.020885
      px      :     0.005467
      py      :     0.009505

 22 H s       :     0.880668  s :     0.880668
      pz      :     0.007192  p :     0.020887
      px      :     0.005464
      py      :     0.008230

 23 H s       :     0.881331  s :     0.881331
      pz      :     0.005905  p :     0.020886
      px      :     0.005461
      py      :     0.009519

 24 H s       :     0.881217  s :     0.881217
      pz      :     0.007199  p :     0.020888
      px      :     0.005477
      py      :     0.008212

 25 H s       :     0.881644  s :     0.881644
      pz      :     0.005884  p :     0.020848
      px      :     0.005438
      py      :     0.009525

 26 H s       :     0.881489  s :     0.881489
      pz      :     0.007203  p :     0.020850
      px      :     0.005457
      py      :     0.008189

 27 H s       :     0.879101  s :     0.879101
      pz      :     0.005869  p :     0.020893
      px      :     0.005463
      py      :     0.009561

 28 H s       :     0.879132  s :     0.879132
      pz      :     0.007205  p :     0.020905
      px      :     0.005499
      py      :     0.008201

 29 H s       :     0.859673  s :     0.859673
      pz      :     0.006525  p :     0.020654
      px      :     0.005749
      py      :     0.008381

 30 H s       :     0.850471  s :     0.850471
      pz      :     0.010603  p :     0.020870
      px      :     0.005674
      py      :     0.004594

 31 H s       :     0.859758  s :     0.859758
      pz      :     0.005415  p :     0.020659
      px      :     0.005720
      py      :     0.009524



                     *******************************
                     * LOEWDIN POPULATION ANALYSIS *
                     *******************************

----------------------
LOEWDIN ATOMIC CHARGES
----------------------
   0 C :   -0.328305
   1 C :   -0.302691
   2 C :   -0.277767
   3 C :   -0.275111
   4 C :   -0.274861
   5 C :   -0.274862
   6 C :   -0.275109
   7 C :   -0.277766
   8 C :   -0.302700
   9 C :   -0.328309
  10 H :    0.121228
  11 H :    0.121066
  12 H :    0.121017
  13 H :    0.135455
  14 H :    0.135385
  15 H :    0.137234
  16 H :    0.137283
  17 H :    0.137530
  18 H :    0.137530
  19 H :    0.137488
  20 H :    0.137521
  21 H :    0.137499
  22 H :    0.137514
  23 H :    0.137520
  24 H :    0.137537
  25 H :    0.137238
  26 H :    0.137280
  27 H :    0.135450
  28 H :    0.135395
  29 H :    0.121069
  30 H :    0.121231
  31 H :    0.121010

-------------------------------
LOEWDIN REDUCED ORBITAL CHARGES
-------------------------------
  0 C s       :     2.844879  s :     2.844879
      pz      :     1.073494  p :     3.199842
      px      :     1.049052
      py      :     1.077296
      dz2     :     0.036598  d :     0.259269
      dxz     :     0.072662
      dyz     :     0.026768
      dx2y2   :     0.047006
      dxy     :     0.076235
      f0      :     0.003809  f :     0.024315
      f+1     :     0.003328
      f-1     :     0.000600
      f+2     :     0.004536
      f-2     :     0.002685
      f+3     :     0.004028
      f-3     :     0.005328

  1 C s       :     2.791658  s :     2.791658
      pz      :     1.021085  p :     3.073481
      px      :     1.021831
      py      :     1.030565
      dz2     :     0.066946  d :     0.399564
      dxz     :     0.101448
      dyz     :     0.089192
      dx2y2   :     0.068257
      dxy     :     0.073722
      f0      :     0.008038  f :     0.037988
      f+1     :     0.005714
      f-1     :     0.003937
      f+2     :     0.005905
      f-2     :     0.004734
      f+3     :     0.004080
      f-3     :     0.005579

  2 C s       :     2.788713  s :     2.788713
      pz      :     1.017868  p :     3.055043
      px      :     1.009185
      py      :     1.027990
      dz2     :     0.067371  d :     0.396256
      dxz     :     0.099778
      dyz     :     0.089529
      dx2y2   :     0.066423
      dxy     :     0.073156
      f0      :     0.007934  f :     0.037755
      f+1     :     0.005732
      f-1     :     0.004012
      f+2     :     0.005772
      f-2     :     0.004771
      f+3     :     0.003991
      f-3     :     0.005543

  3 C s       :     2.787418  s :     2.787418
      pz      :     1.016750  p :     3.054149
      px      :     1.009209
      py      :     1.028190
      dz2     :     0.067188  d :     0.395807
      dxz     :     0.099529
      dyz     :     0.089700
      dx2y2   :     0.066504
      dxy     :     0.072886
      f0      :     0.007915  f :     0.037737
      f+1     :     0.005736
      f-1     :     0.004003
      f+2     :     0.005769
      f-2     :     0.004766
      f+3     :     0.003995
      f-3     :     0.005554

  4 C s       :     2.787358  s :     2.787358
      pz      :     1.016685  p :     3.053805
      px      :     1.008890
      py      :     1.028230
      dz2     :     0.067268  d :     0.395969
      dxz     :     0.099654
      dyz     :     0.089610
      dx2y2   :     0.066494
      dxy     :     0.072943
      f0      :     0.007906  f :     0.037730
      f+1     :     0.005735
      f-1     :     0.004012
      f+2     :     0.005758
      f-2     :     0.004770
      f+3     :     0.003986
      f-3     :     0.005562

  5 C s       :     2.787357  s :     2.787357
      pz      :     1.016682  p :     3.053803
      px      :     1.008887
      py      :     1.028233
      dz2     :     0.067322  d :     0.395973
      dxz     :     0.099655
      dyz     :     0.089508
      dx2y2   :     0.066539
      dxy     :     0.072949
      f0      :     0.007903  f :     0.037729
      f+1     :     0.005734
      f-1     :     0.004013
      f+2     :     0.005758
      f-2     :     0.004769
      f+3     :     0.003988
      f-3     :     0.005563

  6 C s       :     2.787418  s :     2.787418
      pz      :     1.016757  p :     3.054151
      px      :     1.009207
      py      :     1.028187
      dz2     :     0.067310  d :     0.395804
      dxz     :     0.099621
      dyz     :     0.089427
      dx2y2   :     0.066666
      dxy     :     0.072780
      f0      :     0.007901  f :     0.037737
      f+1     :     0.005734
      f-1     :     0.004020
      f+2     :     0.005755
      f-2     :     0.004776
      f+3     :     0.003984
      f-3     :     0.005567

  7 C s       :     2.788712  s :     2.788712
      pz      :     1.017871  p :     3.055041
      px      :     1.009178
      py      :     1.027992
      dz2     :     0.067604  d :     0.396257
      dxz     :     0.099866
      dyz     :     0.089049
      dx2y2   :     0.066670
      dxy     :     0.073068
      f0      :     0.007912  f :     0.037755
      f+1     :     0.005731
      f-1     :     0.004033
      f+2     :     0.005759
      f-2     :     0.004779
      f+3     :     0.003984
      f-3     :     0.005558

  8 C s       :     2.791654  s :     2.791654
      pz      :     1.021094  p :     3.073484
      px      :     1.021834
      py      :     1.030556
      dz2     :     0.067237  d :     0.399573
      dxz     :     0.101609
      dyz     :     0.088584
      dx2y2   :     0.068590
      dxy     :     0.073552
      f0      :     0.008006  f :     0.037988
      f+1     :     0.005712
      f-1     :     0.003971
      f+2     :     0.005881
      f-2     :     0.004752
      f+3     :     0.004063
      f-3     :     0.005603

  9 C s       :     2.844879  s :     2.844879
      pz      :     1.073491  p :     3.199839
      px      :     1.049046
      py      :     1.077302
      dz2     :     0.036682  d :     0.259275
      dxz     :     0.072812
      dyz     :     0.026500
      dx2y2   :     0.047181
      dxy     :     0.076100
      f0      :     0.003776  f :     0.024315
      f+1     :     0.003327
      f-1     :     0.000651
      f+2     :     0.004499
      f-2     :     0.002703
      f+3     :     0.004011
      f-3     :     0.005348

 10 H s       :     0.818488  s :     0.818488
      pz      :     0.031711  p :     0.060283
      px      :     0.014967
      py      :     0.013606

 11 H s       :     0.818803  s :     0.818803
      pz      :     0.019492  p :     0.060132
      px      :     0.015209
      py      :     0.025431

 12 H s       :     0.818851  s :     0.818851
      pz      :     0.016400  p :     0.060131
      px      :     0.015386
      py      :     0.028346

 13 H s       :     0.806868  s :     0.806868
      pz      :     0.015773  p :     0.057678
      px      :     0.014837
      py      :     0.027068

 14 H s       :     0.806935  s :     0.806935
      pz      :     0.018757  p :     0.057680
      px      :     0.014703
      py      :     0.024219

 15 H s       :     0.805095  s :     0.805095
      pz      :     0.015870  p :     0.057670
      px      :     0.014778
      py      :     0.027023

 16 H s       :     0.805056  s :     0.805056
      pz      :     0.018909  p :     0.057661
      px      :     0.014692
      py      :     0.024060

 17 H s       :     0.804814  s :     0.804814
      pz      :     0.015793  p :     0.057656
      px      :     0.014818
      py      :     0.027045

 18 H s       :     0.804822  s :     0.804822
      pz      :     0.018868  p :     0.057649
      px      :     0.014742
      py      :     0.024039

 19 H s       :     0.804858  s :     0.804858
      pz      :     0.015780  p :     0.057653
      px      :     0.014779
      py      :     0.027094

 20 H s       :     0.804837  s :     0.804837
      pz      :     0.018881  p :     0.057642
      px      :     0.014768
      py      :     0.023994

 21 H s       :     0.804849  s :     0.804849
      pz      :     0.015753  p :     0.057651
      px      :     0.014777
      py      :     0.027121

 22 H s       :     0.804843  s :     0.804843
      pz      :     0.018912  p :     0.057644
      px      :     0.014771
      py      :     0.023960

 23 H s       :     0.804822  s :     0.804822
      pz      :     0.015742  p :     0.057658
      px      :     0.014755
      py      :     0.027161

 24 H s       :     0.804815  s :     0.804815
      pz      :     0.018926  p :     0.057648
      px      :     0.014804
      py      :     0.023919

 25 H s       :     0.805094  s :     0.805094
      pz      :     0.015764  p :     0.057668
      px      :     0.014711
      py      :     0.027194

 26 H s       :     0.805058  s :     0.805058
      pz      :     0.019033  p :     0.057662
      px      :     0.014758
      py      :     0.023870

 27 H s       :     0.806871  s :     0.806871
      pz      :     0.015651  p :     0.057679
      px      :     0.014725
      py      :     0.027303

 28 H s       :     0.806926  s :     0.806926
      pz      :     0.018901  p :     0.057679
      px      :     0.014813
      py      :     0.023965

 29 H s       :     0.818801  s :     0.818801
      pz      :     0.019681  p :     0.060131
      px      :     0.015334
      py      :     0.025115

 30 H s       :     0.818487  s :     0.818487
      pz      :     0.031680  p :     0.060282
      px      :     0.014966
      py      :     0.013636

 31 H s       :     0.818858  s :     0.818858
      pz      :     0.016237  p :     0.060132
      px      :     0.015261
      py      :     0.028634



                      *****************************
                      * MAYER POPULATION ANALYSIS *
                      *****************************

  NA   - Mulliken gross atomic population
  ZA   - Total nuclear charge
  QA   - Mulliken gross atomic charge
  VA   - Mayer's total valence
  BVA  - Mayer's bonded valence
  FA   - Mayer's free valence

  ATOM       NA         ZA         QA         VA         BVA        FA
  0 C      6.3816     6.0000    -0.3816     3.8889     3.8889    -0.0000
  1 C      6.1733     6.0000    -0.1733     3.8738     3.8738    -0.0000
  2 C      6.2090     6.0000    -0.2090     3.9014     3.9014    -0.0000
  3 C      6.1937     6.0000    -0.1937     3.9228     3.9228    -0.0000
  4 C      6.1978     6.0000    -0.1978     3.9278     3.9278     0.0000
  5 C      6.1979     6.0000    -0.1979     3.9278     3.9278    -0.0000
  6 C      6.1936     6.0000    -0.1936     3.9228     3.9228    -0.0000
  7 C      6.2090     6.0000    -0.2090     3.9014     3.9014     0.0000
  8 C      6.1733     6.0000    -0.1733     3.8738     3.8738    -0.0000
  9 C      6.3816     6.0000    -0.3816     3.8889     3.8889     0.0000
 10 H      0.8713     1.0000     0.1287     0.9640     0.9640    -0.0000
 11 H      0.8803     1.0000     0.1197     0.9676     0.9676    -0.0000
 12 H      0.8805     1.0000     0.1195     0.9676     0.9676    -0.0000
 13 H      0.9001     1.0000     0.0999     0.9643     0.9643    -0.0000
 14 H      0.9000     1.0000     0.1000     0.9642     0.9642    -0.0000
 15 H      0.9025     1.0000     0.0975     0.9673     0.9673    -0.0000
 16 H      0.9023     1.0000     0.0977     0.9673     0.9673    -0.0000
 17 H      0.9022     1.0000     0.0978     0.9687     0.9687    -0.0000
 18 H      0.9021     1.0000     0.0979     0.9686     0.9686     0.0000
 19 H      0.9017     1.0000     0.0983     0.9689     0.9689     0.0000
 20 H      0.9016     1.0000     0.0984     0.9688     0.9688     0.0000
 21 H      0.9017     1.0000     0.0983     0.9689     0.9689    -0.0000
 22 H      0.9016     1.0000     0.0984     0.9688     0.9688    -0.0000
 23 H      0.9022     1.0000     0.0978     0.9687     0.9687     0.0000
 24 H      0.9021     1.0000     0.0979     0.9686     0.9686    -0.0000
 25 H      0.9025     1.0000     0.0975     0.9673     0.9673    -0.0000
 26 H      0.9023     1.0000     0.0977     0.9672     0.9672     0.0000
 27 H      0.9000     1.0000     0.1000     0.9643     0.9643     0.0000
 28 H      0.9000     1.0000     0.1000     0.9642     0.9642     0.0000
 29 H      0.8803     1.0000     0.1197     0.9676     0.9676     0.0000
 30 H      0.8713     1.0000     0.1287     0.9640     0.9640     0.0000
 31 H      0.8804     1.0000     0.1196     0.9676     0.9676     0.0000

  Mayer bond orders larger than 0.100000
B(  0-C ,  1-C ) :   0.9787 B(  0-C , 10-H ) :   0.9696 B(  0-C , 11-H ) :   0.9681 
[...]
      dxz     :     0.189511
      dyz     :     0.166304
      dx2y2   :     0.124543
      dxy     :     0.147520
      f0      :     0.008169  f :     0.038996
      f+1     :     0.006152
      f-1     :     0.004007
      f+2     :     0.005866
      f-2     :     0.004733
      f+3     :     0.004557
      f-3     :     0.005512

  4 C s       :     2.688566  s :     2.688566
      pz      :     0.911824  p :     2.743173
      px      :     0.906535
      py      :     0.924814
      dz2     :     0.138325  d :     0.766105
      dxz     :     0.189657
      dyz     :     0.166360
      dx2y2   :     0.124332
      dxy     :     0.147431
      f0      :     0.008165  f :     0.038993
      f+1     :     0.006150
      f-1     :     0.004015
      f+2     :     0.005856
      f-2     :     0.004737
      f+3     :     0.004550
      f-3     :     0.005520

  5 C s       :     2.688565  s :     2.688565
      pz      :     0.911823  p :     2.743170
      px      :     0.906534
      py      :     0.924814
      dz2     :     0.138374  d :     0.766114
      dxz     :     0.189670
      dyz     :     0.166240
      dx2y2   :     0.124402
      dxy     :     0.147428
      f0      :     0.008161  f :     0.038993
      f+1     :     0.006150
      f-1     :     0.004017
      f+2     :     0.005855
      f-2     :     0.004737
      f+3     :     0.004551
      f-3     :     0.005521

  6 C s       :     2.688738  s :     2.688738
      pz      :     0.912045  p :     2.744046
      px      :     0.907034
      py      :     0.924967
      dz2     :     0.138366  d :     0.766053
      dxz     :     0.189610
      dyz     :     0.165926
      dx2y2   :     0.124746
      dxy     :     0.147404
      f0      :     0.008156  f :     0.038996
      f+1     :     0.006152
      f-1     :     0.004023
      f+2     :     0.005854
      f-2     :     0.004741
      f+3     :     0.004548
      f-3     :     0.005523

  7 C s       :     2.690225  s :     2.690225
      pz      :     0.913466  p :     2.746727
      px      :     0.908098
      py      :     0.925163
      dz2     :     0.140228  d :     0.770504
      dxz     :     0.191623
      dyz     :     0.166260
      dx2y2   :     0.124856
      dxy     :     0.147536
      f0      :     0.008171  f :     0.039013
      f+1     :     0.006145
      f-1     :     0.004039
      f+2     :     0.005849
      f-2     :     0.004746
      f+3     :     0.004549
      f-3     :     0.005514

  8 C s       :     2.696167  s :     2.696167
      pz      :     0.924880  p :     2.777142
      px      :     0.919552
      py      :     0.932709
      dz2     :     0.136190  d :     0.775004
      dxz     :     0.196055
      dyz     :     0.157817
      dx2y2   :     0.133316
      dxy     :     0.151625
      f0      :     0.008250  f :     0.039267
      f+1     :     0.006139
      f-1     :     0.003995
      f+2     :     0.006009
      f-2     :     0.004707
      f+3     :     0.004601
      f-3     :     0.005565

  9 C s       :     2.748459  s :     2.748459
      pz      :     0.966962  p :     2.893084
      px      :     0.953337
      py      :     0.972784
      dz2     :     0.063302  d :     0.467928
      dxz     :     0.132274
      dyz     :     0.044381
      dx2y2   :     0.085763
      dxy     :     0.142209
      f0      :     0.004177  f :     0.025937
      f+1     :     0.003694
      f-1     :     0.000705
      f+2     :     0.004606
      f-2     :     0.002740
      f+3     :     0.004684
      f-3     :     0.005330

 10 H s       :     0.708341  s :     0.708341
      pz      :     0.104108  p :     0.222618
      px      :     0.057470
      py      :     0.061041

 11 H s       :     0.703312  s :     0.703312
      pz      :     0.077175  p :     0.223580
      px      :     0.058277
      py      :     0.088127

 12 H s       :     0.703384  s :     0.703384
      pz      :     0.069030  p :     0.223515
      px      :     0.058571
      py      :     0.095914

 13 H s       :     0.684936  s :     0.684936
      pz      :     0.057684  p :     0.205124
      px      :     0.059274
      py      :     0.088166

 14 H s       :     0.685028  s :     0.685028
      pz      :     0.064659  p :     0.205026
      px      :     0.058909
      py      :     0.081458

 15 H s       :     0.677365  s :     0.677365
      pz      :     0.058873  p :     0.204671
      px      :     0.058760
      py      :     0.087038

 16 H s       :     0.677269  s :     0.677269
      pz      :     0.066449  p :     0.204785
      px      :     0.058636
      py      :     0.079700

 17 H s       :     0.676793  s :     0.676793
      pz      :     0.059027  p :     0.204965
      px      :     0.059056
      py      :     0.086882

 18 H s       :     0.676829  s :     0.676829
      pz      :     0.066583  p :     0.204868
      px      :     0.058861
      py      :     0.079423

 19 H s       :     0.676790  s :     0.676790
      pz      :     0.058966  p :     0.204947
      px      :     0.059032
      py      :     0.086949

 20 H s       :     0.676724  s :     0.676724
      pz      :     0.066631  p :     0.205008
      px      :     0.059039
      py      :     0.079338

 21 H s       :     0.676757  s :     0.676757
      pz      :     0.058944  p :     0.204998
      px      :     0.059044
      py      :     0.087010

 22 H s       :     0.676752  s :     0.676752
      pz      :     0.066674  p :     0.204961
      px      :     0.059029
      py      :     0.079257

 23 H s       :     0.676820  s :     0.676820
      pz      :     0.058907  p :     0.204924
      px      :     0.058917
      py      :     0.087101

 24 H s       :     0.676806  s :     0.676806
      pz      :     0.066713  p :     0.204907
      px      :     0.058997
      py      :     0.079196

 25 H s       :     0.677346  s :     0.677346
      pz      :     0.058692  p :     0.204703
      px      :     0.058637
      py      :     0.087374

 26 H s       :     0.677287  s :     0.677287
      pz      :     0.066679  p :     0.204751
      px      :     0.058755
      py      :     0.079316

 27 H s       :     0.684954  s :     0.684954
      pz      :     0.057463  p :     0.205101
      px      :     0.059023
      py      :     0.088615

 28 H s       :     0.685008  s :     0.685008
      pz      :     0.064929  p :     0.205051
      px      :     0.059158
      py      :     0.080963

 29 H s       :     0.703312  s :     0.703312
      pz      :     0.077550  p :     0.223576
      px      :     0.058497
      py      :     0.087528

 30 H s       :     0.708336  s :     0.708336
      pz      :     0.104053  p :     0.222622
      px      :     0.057470
      py      :     0.061099

 31 H s       :     0.703388  s :     0.703388
      pz      :     0.068707  p :     0.223514
      px      :     0.058345
      py      :     0.096461



                      *****************************
                      * MAYER POPULATION ANALYSIS *
                      *****************************

  NA   - Mulliken gross atomic population
  ZA   - Total nuclear charge
  QA   - Mulliken gross atomic charge
  VA   - Mayer's total valence
  BVA  - Mayer's bonded valence
  FA   - Mayer's free valence

  ATOM       NA         ZA         QA         VA         BVA        FA
  0 C      7.4103     6.0000    -1.4103     3.5560     3.5560    -0.0000
  1 C      6.2271     6.0000    -0.2271     2.8821     2.8821    -0.0000
  2 C      6.5433     6.0000    -0.5433     3.3160     3.3160    -0.0000
  3 C      6.6052     6.0000    -0.6052     3.3787     3.3787    -0.0000
  4 C      6.6292     6.0000    -0.6292     3.3634     3.3634     0.0000
  5 C      6.6300     6.0000    -0.6300     3.3640     3.3640     0.0000
  6 C      6.6049     6.0000    -0.6049     3.3788     3.3788    -0.0000
  7 C      6.5433     6.0000    -0.5433     3.3163     3.3163     0.0000
  8 C      6.2271     6.0000    -0.2271     2.8822     2.8822    -0.0000
  9 C      7.4105     6.0000    -1.4105     3.5559     3.5559    -0.0000
 10 H      0.6114     1.0000     0.3886     0.9425     0.9425    -0.0000
 11 H      0.6566     1.0000     0.3434     1.0014     1.0014     0.0000
 12 H      0.6571     1.0000     0.3429     1.0022     1.0022    -0.0000
 13 H      0.7049     1.0000     0.2951     0.9211     0.9211    -0.0000
 14 H      0.7031     1.0000     0.2969     0.9188     0.9188    -0.0000
 15 H      0.7090     1.0000     0.2910     0.9091     0.9091     0.0000
 16 H      0.7077     1.0000     0.2923     0.9071     0.9071    -0.0000
 17 H      0.7115     1.0000     0.2885     0.9012     0.9012     0.0000
 18 H      0.7079     1.0000     0.2921     0.8962     0.8962    -0.0000
 19 H      0.7089     1.0000     0.2911     0.8811     0.8811     0.0000
 20 H      0.7065     1.0000     0.2935     0.8773     0.8773     0.0000
 21 H      0.7090     1.0000     0.2910     0.8812     0.8812     0.0000
 22 H      0.7064     1.0000     0.2936     0.8773     0.8773     0.0000
 23 H      0.7112     1.0000     0.2888     0.9009     0.9009    -0.0000
 24 H      0.7082     1.0000     0.2918     0.8965     0.8965    -0.0000
 25 H      0.7091     1.0000     0.2909     0.9091     0.9091     0.0000
 26 H      0.7077     1.0000     0.2923     0.9071     0.9071     0.0000
 27 H      0.7045     1.0000     0.2955     0.9208     0.9208     0.0000
 28 H      0.7034     1.0000     0.2966     0.9191     0.9191    -0.0000
 29 H      0.6569     1.0000     0.3431     1.0017     1.0017    -0.0000
 30 H      0.6114     1.0000     0.3886     0.9425     0.9425     0.0000
 31 H      0.6567     1.0000     0.3433     1.0019     1.0019     0.0000

  Mayer bond orders larger than 0.100000
B(  0-C ,  1-C ) :   0.4822 B(  0-C ,  2-C ) :   0.2261 B(  0-C , 10-H ) :   0.9063 
B(  0-C , 11-H ) :   0.9516 B(  0-C , 12-H ) :   0.9516 B(  1-C ,  2-C ) :   0.4740 
B(  1-C ,  3-C ) :   0.3205 B(  1-C , 13-H ) :   0.9381 B(  1-C , 14-H ) :   0.9355 
B(  2-C ,  3-C ) :   0.4504 B(  2-C ,  4-C ) :   0.3798 B(  2-C , 15-H ) :   0.9670 
B(  2-C , 16-H ) :   0.9660 B(  3-C ,  4-C ) :   0.4232 B(  3-C ,  5-C ) :   0.3906 
B(  3-C , 17-H ) :   0.9671 B(  3-C , 18-H ) :   0.9624 B(  4-C ,  5-C ) :   0.3793 
B(  4-C ,  6-C ) :   0.3904 B(  4-C , 19-H ) :   0.9804 B(  4-C , 20-H ) :   0.9776 
B(  5-C ,  6-C ) :   0.4235 B(  5-C ,  7-C ) :   0.3798 B(  5-C , 21-H ) :   0.9806 
B(  5-C , 22-H ) :   0.9773 B(  6-C ,  7-C ) :   0.4504 B(  6-C ,  8-C ) :   0.3204 
B(  6-C , 23-H ) :   0.9664 B(  6-C , 24-H ) :   0.9631 B(  7-C ,  8-C ) :   0.4741 
B(  7-C ,  9-C ) :   0.2261 B(  7-C , 25-H ) :   0.9672 B(  7-C , 26-H ) :   0.9659 
B(  8-C ,  9-C ) :   0.4822 B(  8-C , 27-H ) :   0.9379 B(  8-C , 28-H ) :   0.9357 
B(  9-C , 29-H ) :   0.9519 B(  9-C , 30-H ) :   0.9064 B(  9-C , 31-H ) :   0.9512 


-------
TIMINGS
-------

Total SCF time: 0 days 0 hours 0 min 19 sec 

Total time                  ....      19.246 sec
Sum of individual times     ....      18.806 sec  ( 97.7%)

SCF preparation             ....       4.974 sec  ( 25.8%)
Fock matrix formation       ....      12.368 sec  ( 64.3%)
  Startup                   ....       0.104 sec  (  0.8% of F)
  Split-RI-J                ....       0.790 sec  (  6.4% of F)
  XC integration            ....      10.650 sec  ( 86.1% of F)
    XC Preparation          ....       0.000 sec  (  0.0% of XC)
    Basis function eval.    ....       0.099 sec  (  0.9% of XC)
    Density eval.           ....       0.122 sec  (  1.1% of XC)
    XC-Functional eval.     ....       0.009 sec  (  0.1% of XC)
    XC-Potential eval.      ....       0.166 sec  (  1.6% of XC)
  CPCM terms                ....       0.598 sec  (  4.8% of F)
Diagonalization             ....       0.000 sec  (  0.0%)
Density matrix formation    ....       0.185 sec  (  1.0%)
Total Energy calculation    ....       0.134 sec  (  0.7%)
Population analysis         ....       0.162 sec  (  0.8%)
Orbital Transformation      ....       0.151 sec  (  0.8%)
Orbital Orthonormalization  ....       0.000 sec  (  0.0%)
DIIS solution               ....       0.182 sec  (  0.9%)
SOSCF solution              ....       0.650 sec  (  3.4%)
Finished LeanSCF after  19.4 sec

Maximum memory used throughout the entire LEANSCF-calculation: 53.8 MB

-------------------------   --------------------
FINAL SINGLE POINT ENERGY      -394.458754856006
-------------------------   --------------------



           ************************************************************
           *        Program running with 64 parallel MPI-processes    *
           *              working on a common directory               *
           ************************************************************

------------------------------------------------------------------------------
                              ORCA PROPERTY CALCULATIONS
------------------------------------------------------------------------------

GBWName                                 ... single_point_tzvpd.gbw
Number of atoms                         ...     32
Number of basis functions               ...    568
Max core memory                         ...   2000 MB

Electric properties:
Dipole moment                           ... YES
Quadrupole moment                       ...  NO
Static polarizability (Dipole/Dipole)   ...  NO
Static polarizability (Dipole/Quad.)    ...  NO
Static polarizability (Quad./Quad.)     ...  NO
Static polarizability (Velocity)        ...  NO

Atomic electric properties:
Dipole moment                           ...  NO
Quadrupole moment                       ...  NO
Static polarizability                   ...  NO

Choice of electric origin               ... Center of mass
Position of electric origin             ...    11.120413    -0.437537     5.411106

General magnetic properties:
Magnetizability                         ...  NO

EPR properties:
g-Tensor (aka g-matrix)                 ...  NO
Zero-Field splitting spin-orbit         ...  NO
Zero-field splitting spin-spin          ...  NO
Hyperfine couplings                     ...  NO (   0 nuclei)
Quadrupole couplings                    ...  NO (   0 nuclei)
Contact density                         ...  NO (   0 nuclei)

NMR properties:
Chemical shifts                         ...  NO (   0 nuclei)
Spin-rotation constants                 ...  NO (   0 nuclei)
Spin-spin couplings                     ...  NO (   0 nuclei,    0 pairs)

Choice of magnetic origin               ... GIAO
Position of magnetic origin             ...     0.000000     0.000000     0.000000

Properties with geometric perturbations:
SCF Hessian                             ...  NO
IR spectrum                             ...  NO
VCD spectrum                            ...  NO
X-ray spectroscopy properties:
SCF XES/XAS/RIXS spectra                ...  NO


-------------
DIPOLE MOMENT
-------------

Method             : SCF
Type of density    : Electron Density
Multiplicity       :   1
Irrep              :   0
Energy             :  -394.4587548560060668 Eh
Relativity type    : 
Basis              : AO
                                X                 Y                 Z
Electronic contribution:     -0.000369659      -0.007936988      -0.001003585
Nuclear contribution   :      0.000409785       0.007616163       0.000964889
                        -----------------------------------------
Total Dipole Moment    :      0.000040127      -0.000320825      -0.000038696
                        -----------------------------------------
Magnitude (a.u.)       :      0.000325632
Magnitude (Debye)      :      0.000827690



--------------------
Rotational spectrum 
--------------------
 
Rotational constants in cm-1:             0.282396             0.008375             0.008259 
Rotational constants in MHz :          8466.011494           251.077225           247.609015 

Dipole components along the rotational axes: 
x,y,z [a.u.] :     0.000031    -0.000027    -0.000323 
x,y,z [Debye]:     0.000078    -0.000068    -0.000821 

 

Dipole moment calculation done in   0.0 sec 

Maximum memory used throughout the entire PROP-calculation: 36.8 MB

--------------------------------
SUGGESTED CITATIONS FOR THIS RUN
--------------------------------

Below you find a list of papers that are relevant to this ORCA run
We neither can nor want to force you to cite these papers, but we appreciate if you do
You receive ORCA, which is the product of decades of hard work by many enthusiastic individuals, for free
The only thing we kindly ask in return is that you cite our papers,
We deeply appreciate it, if you show your appreciation for ORCA by not just citing the generic ORCA reference.

Please note that relegating all ORCA citations to the supporting information does *not* help us.
SI sections are not indexed - citations you put there will not count into any citation statistics
But we need these citations in order to attract the funding resources that allow us to do what we are doing

Therefore, if you are a happy ORCA user, please consider citing a few of the papers listed below in the main body of your paper

In addition to the list printed below, the program has created the file single_point_tzvpd.bibtex that contains the list in bibtex format
You can import this file easily into all common literature databanks and citation aid programs


List of essential papers. We consider these as the minimum necessary citations

  1. Neese,F.
     Software update: the ORCA program system, version 5.0
     WIRES Comput. Molec. Sci., 2022 12(1)e1606
     doi.org/10.1002/wcms.1606

List of papers to cite with high priority. The work reported in these papers was absolutely
necessary for this run to complete.
Our perspective: the developers of density functionals and basis sets usually get cited in chemistry papers
Good! But without the algorithms to do something with them, the functionals or basis sets would not do anything.
Hence, in our opinion, the algorithm design and method developments papers are equally worthy of getting cited

  1. Neese,F.
     An improvement of the resolution of the identity approximation for the formation of the Coulomb matrix
     J. Comp. Chem., 2003 24(14)1740-1747
     doi.org/10.1002/jcc.10318
  2. Garcia-Rates,M.; Neese,F.
     Effect of the Solute Cavity on the Solvation Energy and its Derivatives within the Framework of the Gaussian Charge Scheme
     J. Comput. Chem., 2020 41 922-939
     doi.org/10.1002/jcc.26139
  3. Neese,F.
     The SHARK Integral Generation and Digestion System
     J. Comp. Chem., 2022  1-16
     doi.org/10.1002/jcc.26942

List of suggested additional citations. These are papers that are important in the 'surrounding' of 
of this run, or papers that preceded the highly important papers. If you like your results we are grateful for a citation.

  1. Neese,F.
     The ORCA program system
     WIRES Comput. Molec. Sci., 2012 2(1)73-78
     doi.org/10.1002/wcms.81
  2. Neese,F.
     Software update: the ORCA program system, version 4.0
     WIRES Comput. Molec. Sci., 2018 8(1)1-6
     doi.org/10.1002/wcms.1327
  3. Neese,F.; Wennmohs,F.; Becker,U.; Riplinger,C.
     The ORCA quantum chemistry program package
     J. Chem. Phys., 2020 152 Art. No. L224108
     doi.org/10.1063/5.0004608

List of optional additional citations

  1. Neese,F.
     Approximate second-order SCF convergence for spin unrestricted wavefunctions
     Chem. Phys. Lett., 2000 325(1-3)93-98
     doi.org/10.1016/s0009-2614(00)00662-x

Timings for individual modules:

Sum of individual times          ...       34.005 sec (=   0.567 min)
Startup calculation              ...        5.038 sec (=   0.084 min)  14.8 %
SCF iterations                   ...       24.793 sec (=   0.413 min)  72.9 %
Property calculations            ...        4.174 sec (=   0.070 min)  12.3 %



                             ****ORCA TERMINATED NORMALLY****
TOTAL RUN TIME: 0 days 0 hours 1 minutes 58 seconds 571 msec
