
                                 *****************
                                 * O   R   C   A *
                                 *****************

                                            #,                                       
                                            ###                                      
                                            ####                                     
                                            #####                                    
                                            ######                                   
                                           ########,                                 
                                     ,,################,,,,,                         
                               ,,#################################,,                 
                          ,,##########################################,,             
                       ,#########################################, ''#####,          
                    ,#############################################,,   '####,        
                  ,##################################################,,,,####,       
                ,###########''''           ''''###############################       
              ,#####''   ,,,,##########,,,,          '''####'''          '####       
            ,##' ,,,,###########################,,,                        '##       
           ' ,,###''''                  '''############,,,                           
         ,,##''                                '''############,,,,        ,,,,,,###''
      ,#''                                            '''#######################'''  
     '                                                          ''''####''''         
             ,#######,   #######,   ,#######,      ##                                
            ,#'     '#,  ##    ##  ,#'     '#,    #''#        ,####,   ,####,        
            ##       ##  ##   ,#'  ##            #'  '#       #'       #'  '#        
            ##       ##  #######   ##           ,######,      #####,   #    #        
            '#,     ,#'  ##    ##  '#,     ,#' ,#      #,     #,   #   #,  ,#        
             '#######'   ##     ##  '#######'  #'      '#     '####' # '####'        



                #########################################################
                #                        -***-                          #
                #          Department of theory and spectroscopy        #
                #                                                       #
                #                      Frank Neese                      #
                #                                                       #
                #     Directorship, Architecture, Infrastructure        #
                #                    SHARK, DRIVERS                     #
                #        Core code/Algorithms in most modules           #
                #                                                       #
                #        Max Planck Institute fuer Kohlenforschung      #
                #                Kaiser Wilhelm Platz 1                 #
                #                 D-45470 Muelheim/Ruhr                 #
                #                      Germany                          #
                #                                                       #
                #                  All rights reserved                  #
                #                        -***-                          #
                #########################################################


                         Program Version 6.0.0  -   RELEASE  -


 With contributions from (in alphabetic order):
   Daniel Aravena         : Magnetic Suceptibility
   Michael Atanasov       : Ab Initio Ligand Field Theory (pilot matlab implementation)
   Alexander A. Auer      : GIAO ZORA, VPT2 properties, NMR spectrum
   Ute Becker             : All parallelization in ORCA, NUMFREQ, NUMCALC
   Giovanni Bistoni       : ED, misc. LED, open-shell LED, HFLD
   Martin Brehm           : Molecular dynamics
   Dmytro Bykov           : pre 5.0 version of the SCF Hessian
   Marcos Casanova-Páez   : Triplet and SCS-CIS(D). UHF-(DLPNO)-IP/EA/STEOM-CCSD. UHF-CVS-IP/STEOM-CCSD
   Vijay G. Chilkuri      : MRCI spin determinant printing, contributions to CSF-ICE
   Pauline Colinet        : FMM embedding
   Dipayan Datta          : RHF DLPNO-CCSD density
   Achintya Kumar Dutta   : EOM-CC, STEOM-CC
   Nicolas Foglia         : Exact transition moments, OPA infrastructure, MCD improvements
   Dmitry Ganyushin       : Spin-Orbit,Spin-Spin,Magnetic field MRCI
   Miquel Garcia          : C-PCM and meta-GGA Hessian, CCSD/C-PCM, Gaussian charge scheme
   Tiago L. C. Gouveia    : GS-ROHF, GS-ROCIS
   Yang Guo               : DLPNO-NEVPT2, F12-NEVPT2, CIM, IAO-localization
   Andreas Hansen         : Spin unrestricted coupled pair/coupled cluster methods
   Ingolf Harden          : AUTO-CI MPn and infrastructure 
   Benjamin Helmich-Paris : MC-RPA, TRAH-(SCF,CASSCF), AVAS, COSX integrals, SCF dyn. polar.
   Lee Huntington         : MR-EOM, pCC
   Robert Izsak           : Overlap fitted RIJCOSX, COSX-SCS-MP3, EOM
   Riya Kayal             : Wick's Theorem for AUTO-CI, AUTO-CI UHF-CCSDT
   Emily Kempfer          : AUTO-CI, RHF CISDT and CCSDT
   Christian Kollmar      : KDIIS, OOCD, Brueckner-CCSD(T), CCSD density, CASPT2, CASPT2-K, improved NEVPT2
   Axel Koslowski         : Symmetry handling
   Simone Kossmann        : Meta GGA functionals, TD-DFT gradient, OOMP2, (MP2 Hessian; deprecated post 5.0)
   Lucas Lang             : DCDCAS
   Marvin Lechner         : AUTO-CI (C++ implementation), FIC-MRCC
   Spencer Leger          : CASSCF response
   Dagmar Lenk            : GEPOL surface, SMD, ORCA-2-JSON
   Dimitrios Liakos       : Extrapolation schemes; Compound Job, initial MDCI parallelization
   Dimitrios Manganas     : Further ROCIS development; embedding schemes. LFT, Crystal Embedding
   Dimitrios Pantazis     : SARC Basis sets
   Anastasios Papadopoulos: AUTO-CI, single reference methods and gradients
   Taras Petrenko         : pre 6.0 DFT Hessian and TD-DFT gradient, (ASA, deprecated), ECA, 1-Electron XAS/XES, NRVS
   Peter Pinski           : DLPNO-MP2, DLPNO-MP2 Gradient
   Christoph Reimann      : Effective Core Potentials
   Marius Retegan         : Local ZFS, SOC
   Christoph Riplinger    : Optimizer, TS searches, QM/MM, DLPNO-CCSD(T), (RO)-DLPNO pert. Triples
   Michael Roemelt        : Original ROCIS implementation
   Masaaki Saitow         : Open-shell DLPNO-CCSD energy and density
   Barbara Sandhoefer     : DKH picture change effects
   Kantharuban Sivalingam : CASSCF convergence/infrastructure, NEVPT2 and variants, FIC-MRCI
   Bernardo de Souza      : ESD, SOC TD-DFT
   Georgi Stoychev        : AutoAux, RI-MP2 NMR, DLPNO-MP2 response, X2C
   Van Anh Tran           : RI-MP2 g-tensors
   Willem Van den Heuvel  : Paramagnetic NMR
   Zikuan Wang            : NOTCH, Electric field optimization 
   Frank Wennmohs         : Technical directorship and infrastructure
   Hang Xu                : AUTO-CI-Response properties 


 We gratefully acknowledge several colleagues who have allowed us to
 interface, adapt or use parts of their codes:
   Stefan Grimme, W. Hujo, H. Kruse, P. Pracht,  : VdW corrections, initial TS optimization,
                  C. Bannwarth, S. Ehlert,         DFT functionals, gCP, sTDA/sTD-DF
                  L. Wittmann, M. Mueller
   Ed Valeev, F. Pavosevic, A. Kumar             : LibInt (2-el integral package), F12 methods
   Garnet Chan, S. Sharma, J. Yang, R. Olivares  : DMRG
   Ulf Ekstrom                                   : XCFun DFT Library
   Mihaly Kallay                                 : mrcc  (arbitrary order and MRCC methods)
   Frank Weinhold                                : gennbo (NPA and NBO analysis)
   Simon Mueller                                 : openCOSMO-RS
   Christopher J. Cramer and Donald G. Truhlar   : smd solvation model
   Lars Goerigk                                  : TD-DFT with DH, B97 family of functionals
   V. Asgeirsson, H. Jonsson                     : NEB implementation
   FAccTs GmbH                                   : IRC, NEB, NEB-TS, DLPNO-Multilevel, CI-OPT
                                                   MM, QMMM, 2- and 3-layer-ONIOM, Crystal-QMMM,
                                                   LR-CPCM, SF, NACMEs, symmetry and pop. for TD-DFT,
                                                   nearIR, NL-DFT gradient (VV10), updates on ESD,
                                                   ML-optimized integration grids, MBIS, APM,
                                                   GOAT, DOCKER, SOLVATOR, interface openCOSMO-RS
   S Lehtola, MJT Oliveira, MAL Marques          : LibXC Library
   Liviu Ungur et al                             : ANISO software


 Your calculation uses the libint2 library for the computation of 2-el integrals
 For citations please refer to: http://libint.valeyev.net

 Your ORCA version has been built with support for libXC version: 6.2.2
 For citations please refer to: https://libxc.gitlab.io

 This ORCA versions uses:
   CBLAS   interface :  Fast vector & matrix operations
   LAPACKE interface :  Fast linear algebra routines
   SCALAPACK package :  Parallel linear algebra routines
   Shared memory     :  Shared parallel matrices
   BLAS/LAPACK       :  OpenBLAS 0.3.27  USE64BITINT DYNAMIC_ARCH NO_AFFINITY Zen SINGLE_THREADED
        Core in use  :  Zen
   Copyright (c) 2011-2014, The OpenBLAS Project


NOTE: MaxCore=2000 MB was set to SCF,MP2,MDCI,CIPSI,MRCI and CIS
      => If you want to overwrite this, your respective input block should be placed after the MaxCore statement


***************************************
The coordinates will be read from file: butanol-avg_c000.xyz
***************************************


Warning: RI is on but no J-basis has been assigned. Assigning Def2/J (nothing to worry about!)
================================================================================

----- Orbital basis set information -----
Your calculation utilizes the basis: def2-TZVPD
   F. Weigend and R. Ahlrichs, Phys. Chem. Chem. Phys. 7, 3297 (2005).
   D. Rappoport and F. Furche, J. Chem. Phys. 133, 134105 (2010)
   D. Rappoport, J. Chem. Phys. 155, 124102 (2021).

----- AuxJ basis set information -----
Your calculation utilizes the auxiliary basis: def2/J
   F. Weigend, Phys. Chem. Chem. Phys. 8, 1057 (2006).

================================================================================
                                        WARNINGS
                       Please study these warnings very carefully!
================================================================================


================================================================================
                                       INPUT FILE
================================================================================
NAME = input.dat
|  1> %MaxCore 2000
|  2> 
|  3> %base "single_point_tzvpd"
|  4> 
|  5> %cpcm
|  6> radius[1]  1.3
|  7> radius[2]  1.601
|  8> radius[5]  2.048
|  9> radius[6]  2.0
| 10> radius[7]  1.83
| 11> radius[8]  1.72
| 12> radius[9]  1.72
| 13> radius[10]  1.771
| 14> radius[13]  2.152
| 15> radius[14]  2.2
| 16> radius[15]  2.106
| 17> radius[16]  2.16
| 18> radius[17]  2.05
| 19> radius[18]  2.184
| 20> radius[22]  2.261
| 21> radius[26]  2.195
| 22> radius[27]  2.153
| 23> radius[31]  2.172
| 24> radius[32]  2.7
| 25> radius[33]  2.148
| 26> radius[34]  2.2
| 27> radius[35]  2.16
| 28> radius[36]  2.354
| 29> radius[49]  2.245
| 30> radius[50]  2.55
| 31> radius[51]  2.402
| 32> radius[53]  2.32
| 33> radius[54]  2.524
| 34> radius[80]  1.978
| 35> radius[82]  2.36
| 36> radius[86]  2.573
| 37> cut_area 0.03571064825863687
| 38> end
| 39> 
| 40> ! CPCM BP86 def2-TZVPD SP PAL64
| 41> 
| 42> %base "single_point_tzvpd"
| 43> 
| 44> * xyzfile 0 1 butanol-avg_c000.xyz
| 45> 
| 46>                          ****END OF INPUT****
================================================================================

                       ****************************
                       * Single Point Calculation *
                       ****************************

---------------------------------
CARTESIAN COORDINATES (ANGSTROEM)
---------------------------------
  C     -2.183810    0.099110   -0.319550
  C     -0.748390    0.442580   -0.706850
  C      0.237910   -0.586620   -0.143500
  C      1.676830   -0.240480   -0.532860
  H      1.941870    0.762990   -0.136590
  H     -2.294070    0.090930    0.785840
  H     -2.464360   -0.897650   -0.721870
  H     -2.875020    0.859580   -0.740120
  H     -0.671710    0.465410   -1.815920
  H     -0.501960    1.452110   -0.311220
  H      0.158620   -0.608730    0.965680
  H     -0.012800   -1.595000   -0.540030
  O      2.566280   -1.177310    0.010700
  H      1.790620   -0.199160   -1.640560
  H      2.517680   -1.984090   -0.565990

----------------------------
CARTESIAN COORDINATES (A.U.)
----------------------------
  NO LB      ZA    FRAG     MASS         X           Y           Z
   0 C     6.0000    0    12.011   -4.126803    0.187291   -0.603862
   1 C     6.0000    0    12.011   -1.414252    0.836355   -1.335753
   2 C     6.0000    0    12.011    0.449585   -1.108551   -0.271176
   3 C     6.0000    0    12.011    3.168749   -0.454441   -1.006959
   4 H     1.0000    0     1.008    3.669602    1.441842   -0.258118
   5 H     1.0000    0     1.008   -4.335164    0.171833    1.485022
   6 H     1.0000    0     1.008   -4.656965   -1.696313   -1.364137
   7 H     1.0000    0     1.008   -5.433000    1.624371   -1.398624
   8 H     1.0000    0     1.008   -1.269348    0.879497   -3.431591
   9 H     1.0000    0     1.008   -0.948567    2.744090   -0.588121
  10 H     1.0000    0     1.008    0.299748   -1.150333    1.824871
  11 H     1.0000    0     1.008   -0.024188   -3.014113   -1.020509
  12 O     8.0000    0    15.999    4.849566   -2.224793    0.020220
  13 H     1.0000    0     1.008    3.383781   -0.376358   -3.100209
  14 H     1.0000    0     1.008    4.757726   -3.749387   -1.069566

--------------------------------
INTERNAL COORDINATES (ANGSTROEM)
--------------------------------
 C      0   0   0     0.000000000000     0.00000000     0.00000000
 C      1   0   0     1.525910714066     0.00000000     0.00000000
 C      2   1   0     1.532776419606   111.15464280     0.00000000
 C      3   2   1     1.530328355485   111.07870528   180.00286495
 H      4   3   2     1.110958214966   109.74706870    59.67608733
 H      1   2   3     1.110905590993   110.33932603    60.37798774
 H      1   2   3     1.110900617742   110.34119328   299.62870041
 H      1   2   3     1.110389575735   109.58984562   180.00326542
 H      2   1   3     1.111952020638   108.82323435   120.83313207
 H      2   1   3     1.111935997574   108.81616953   239.15274009
 H      3   2   1     1.112230204859   109.51192395   300.42743065
 H      3   2   1     1.112169847370   109.43302145    59.54945479
 O      4   3   2     1.401509623585   110.29531136   178.91736731
 H      4   3   2     1.114295650400   110.93625873   301.32384491
 H     13   4   3     0.992888354499   106.66769430    78.34450577

---------------------------
INTERNAL COORDINATES (A.U.)
---------------------------
 C      0   0   0     0.000000000000     0.00000000     0.00000000
 C      1   0   0     2.883553354400     0.00000000     0.00000000
 C      2   1   0     2.896527657588   111.15464280     0.00000000
 C      3   2   1     2.891901486840   111.07870528   180.00286495
 H      4   3   2     2.099406772515   109.74706870    59.67608733
 H      1   2   3     2.099307327619   110.33932603    60.37798774
 H      1   2   3     2.099297929537   110.34119328   299.62870041
 H      1   2   3     2.098332200099   109.58984562   180.00326542
 H      2   1   3     2.101284793065   108.82323435   120.83313207
 H      2   1   3     2.101254513863   108.81616953   239.15274009
 H      3   2   1     2.101810485058   109.51192395   300.42743065
 H      3   2   1     2.101696425935   109.43302145    59.54945479
 O      4   3   2     2.648469362630   110.29531136   178.91736731
 H      4   3   2     2.105713611475   110.93625873   301.32384491
 H     13   4   3     1.876287071563   106.66769430    78.34450577

---------------------
BASIS SET INFORMATION
---------------------
There are 3 groups of distinct atoms

 Group   1 Type C   : 12s6p3d1f contracted to 6s3p3d1f pattern {621111/411/111/1}
 Group   2 Type H   : 5s2p contracted to 3s2p pattern {311/11}
 Group   3 Type O   : 12s7p3d1f contracted to 6s4p3d1f pattern {621111/4111/111/1}

Atom   0C    basis set group =>   1
Atom   1C    basis set group =>   1
Atom   2C    basis set group =>   1
Atom   3C    basis set group =>   1
Atom   4H    basis set group =>   2
Atom   5H    basis set group =>   2
Atom   6H    basis set group =>   2
Atom   7H    basis set group =>   2
Atom   8H    basis set group =>   2
Atom   9H    basis set group =>   2
Atom  10H    basis set group =>   2
Atom  11H    basis set group =>   2
Atom  12O    basis set group =>   3
Atom  13H    basis set group =>   2
Atom  14H    basis set group =>   2
---------------------------------
AUXILIARY/J BASIS SET INFORMATION
---------------------------------
There are 3 groups of distinct atoms

 Group   1 Type C   : 12s5p4d2f1g contracted to 6s4p3d1f1g pattern {711111/2111/211/2/1}
 Group   2 Type H   : 5s2p1d contracted to 3s1p1d pattern {311/2/1}
 Group   3 Type O   : 12s5p4d2f1g contracted to 6s4p3d1f1g pattern {711111/2111/211/2/1}

Atom   0C    basis set group =>   1
Atom   1C    basis set group =>   1
Atom   2C    basis set group =>   1
Atom   3C    basis set group =>   1
Atom   4H    basis set group =>   2
Atom   5H    basis set group =>   2
Atom   6H    basis set group =>   2
Atom   7H    basis set group =>   2
Atom   8H    basis set group =>   2
Atom   9H    basis set group =>   2
Atom  10H    basis set group =>   2
Atom  11H    basis set group =>   2
Atom  12O    basis set group =>   3
Atom  13H    basis set group =>   2
Atom  14H    basis set group =>   2


           ************************************************************
           *        Program running with 64 parallel MPI-processes    *
           *              working on a common directory               *
           ************************************************************
------------------------------------------------------------------------------
                             ORCA STARTUP CALCULATIONS
                           -- RI-GTO INTEGRALS CHOSEN --
------------------------------------------------------------------------------
------------------------------------------------------------------------------
                   ___                                                        
                  /   \      - P O W E R E D   B Y -                         
                 /     \                                                     
                 |  |  |   _    _      __       _____    __    __             
                 |  |  |  | |  | |    /  \     |  _  \  |  |  /  |          
                  \  \/   | |  | |   /    \    | | | |  |  | /  /          
                 / \  \   | |__| |  /  /\  \   | |_| |  |  |/  /          
                |  |  |   |  __  | /  /__\  \  |    /   |      \           
                |  |  |   | |  | | |   __   |  |    \   |  |\   \          
                \     /   | |  | | |  |  |  |  | |\  \  |  | \   \       
                 \___/    |_|  |_| |__|  |__|  |_| \__\ |__|  \__/        
                                                                              
                      - O R C A' S   B I G   F R I E N D -                    
                                      &                                       
                       - I N T E G R A L  F E E D E R -                       
                                                                              
 v1 FN, 2020, v2 2021, v3 2022-2024                                           
------------------------------------------------------------------------------


----------------------
SHARK INTEGRAL PACKAGE
----------------------

Number of atoms                             ...     15
Number of basis functions                   ...    278
Number of shells                            ...    116
Maximum angular momentum                    ...      3
Integral batch strategy                     ... SHARK/LIBINT Hybrid
RI-J (if used) integral strategy            ... SPLIT-RIJ (Revised 2003 algorithm where possible)
Printlevel                                  ...      1
Contraction scheme used                     ... SEGMENTED contraction
Prescreening option                         ... SCHWARTZ
   Thresh                                   ... 1.000e-10
   Tcut                                     ... 1.000e-11
   Tpresel                                  ... 1.000e-11 
Coulomb Range Separation                    ... NOT USED
Exchange Range Separation                   ... NOT USED
Multipole approximations                    ... NOT USED
Finite Nucleus Model                        ... NOT USED
CABS basis                                  ... NOT available
Auxiliary Coulomb fitting basis             ... AVAILABLE
   # of basis functions in Aux-J            ...    355
   # of shells in Aux-J                     ...    125
   Maximum angular momentum in Aux-J        ...      4
Auxiliary J/K fitting basis                 ... NOT available
Auxiliary Correlation fitting basis         ... NOT available
Auxiliary 'external' fitting basis          ... NOT available

Checking pre-screening integrals            ... done (  0.0 sec) Dimension = 116
Check shell pair data                       ... done (  0.0 sec)
Shell pair information
Shell pair cut-off parameter TPreSel        ...   1.0e-11
Total number of shell pairs                 ...      6786
Shell pairs after pre-screening             ...      6471
Total number of primitive shell pairs       ...     16611
Primitive shell pairs kept                  ...     13154
          la=0 lb=0:   1712 shell pairs
          la=1 lb=0:   2068 shell pairs
          la=1 lb=1:    647 shell pairs
          la=2 lb=0:    864 shell pairs
          la=2 lb=1:    524 shell pairs
          la=2 lb=2:    117 shell pairs
          la=3 lb=0:    278 shell pairs
          la=3 lb=1:    174 shell pairs
          la=3 lb=2:     73 shell pairs
          la=3 lb=3:     14 shell pairs

Calculating one electron integrals          ... done (  0.0 sec)
Calculating RI/J V-Matrix + Cholesky decomp.... done (  0.1 sec)
Calculating Nuclear repulsion               ... done (  0.0 sec) ENN=    184.961361985444 Eh

Diagonalization of the overlap matrix:
Smallest eigenvalue                        ... 8.982e-06
Time for diagonalization                   ...    0.008 sec
Threshold for overlap eigenvalues          ... 1.000e-07
Number of eigenvalues below threshold      ... 0
Time for construction of square roots      ...    0.004 sec
Total time needed                          ...    0.017 sec

-------------------
DFT GRID GENERATION
-------------------

General Integration Accuracy     IntAcc      ... 4.388
Radial Grid Type                 RadialGrid  ... OptM3 with GC (2021)
Angular Grid (max. ang.)         AngularGrid ... 4 (Lebedev-302)
Angular grid pruning method      GridPruning ... 4 (adaptive)
Weight generation scheme         WeightScheme... mBecke (2022)
Basis function cutoff            BFCut       ... 1.0000e-10
Integration weight cutoff        WCut        ... 1.0000e-14
Partially contracted basis set               ... off
Rotationally invariant grid construction     ... off
Angular grids for H and He will be reduced by one unit
Diffuse basis detected: some atoms will have their outermost
                        angular grid increased by 1.

Total number of grid points                  ...    65618
Total number of batches                      ...     1032
Average number of points per batch           ...       63
Average number of grid points per atom       ...     4375
Initializing property integral containers    ... done (  0.0 sec)

SHARK setup successfully completed in   0.7 seconds

Maximum memory used throughout the entire STARTUP-calculation: 21.8 MB


           ************************************************************
           *        Program running with 64 parallel MPI-processes    *
           *              working on a common directory               *
           ************************************************************
-------------------------------------------------------------------------------
                                 ORCA GUESS
                   Start orbitals & Density for SCF / CASSCF
-------------------------------------------------------------------------------

------------
SCF SETTINGS
------------
Hamiltonian:
 Density Functional     Method          .... DFT(GTOs)
 Exchange Functional    Exchange        .... B88
   X-Alpha parameter    XAlpha          ....  0.666667
   Becke's b parameter  XBeta           ....  0.004200
 Correlation Functional Correlation     .... P86
 LDA part of GGA corr.  LDAOpt          .... PW91-LDA
 Gradients option       PostSCFGGA      .... off
   NL short-range parameter             ....  4.400000
 RI-approximation to the Coulomb term is turned on
   Number of AuxJ basis functions       .... 355


General Settings:
 Integral files         IntName         .... single_point_tzvpd
 Hartree-Fock type      HFTyp           .... RHF
 Total Charge           Charge          ....    0
 Multiplicity           Mult            ....    1
 Number of Electrons    NEL             ....   42
 Basis Dimension        Dim             ....  278
 Nuclear Repulsion      ENuc            ....    184.9613619854 Eh

Convergence Acceleration:
 AO-DIIS                CNVDIIS         .... on
   Start iteration      DIISMaxIt       ....    12
   Startup error        DIISStart       ....  0.200000
   # of expansion vecs  DIISMaxEq       ....     5
   Bias factor          DIISBfac        ....   1.050
   Max. coefficient     DIISMaxC        ....  10.000
 MO-DIIS                CNVKDIIS        .... off
 Trust-Rad. Augm. Hess. CNVTRAH         .... auto
   Auto Start mean grad. ratio tolernc. ....  1.125000
   Auto Start start iteration           ....    50
   Auto Start num. interpolation iter.  ....    10
   Max. Number of Micro iterations      ....    24
   Max. Number of Macro iterations      .... Maxiter - #DIIS iter
   Number of Davidson start vectors     ....     2
   Converg. threshold    (grad. norm)   ....   5.000e-05
   Grad. Scal. Fac. for Micro threshold ....   0.100
   Minimum threshold for Micro iter.    ....   1.000e-02
   NR start threshold (gradient norm)   ....   1.000e-04
   Initial trust radius                 ....   0.400
   Minimum AH scaling param. (alpha)    ....   1.000
   Maximum AH scaling param. (alpha)    .... 1000.000
   Quad. conv. algorithm                .... NR
   White noise on init. David. guess    .... on
   Maximum white noise                  ....   0.010
   Pseudo random numbers                .... off
   Inactive MOs                         .... canonical
   Orbital update algorithm             .... Taylor
   Preconditioner                       .... Diag
   Full preconditioner red. dimension   ....   250
 SOSCF                  CNVSOSCF        .... on
   Start iteration      SOSCFMaxIt      ....   150
   Startup grad/error   SOSCFStart      ....  0.003300
   Hessian update       SOSCFHessUp     .... L-BFGS
 Level Shifting         CNVShift        .... on
   Level shift para.    LevelShift      ....    0.2500
   Turn off err/grad.   ShiftErr        ....    0.0010
 Zerner damping         CNVZerner       .... off
 Static damping         CNVDamp         .... on
   Fraction old density DampFac         ....    0.7000
   Max. Damping (<1)    DampMax         ....    0.9800
   Min. Damping (>=0)   DampMin         ....    0.0000
   Turn off err/grad.   DampErr         ....    0.1000

SCF Procedure:
 Maximum # iterations   MaxIter         ....   125
 SCF integral mode      SCFMode         .... Direct
   Integral package                     .... SHARK and LIBINT hybrid scheme
 Reset frequency        DirectResetFreq ....    20
 Integral Threshold     Thresh          ....  1.000e-10 Eh
 Primitive CutOff       TCut            ....  1.000e-11 Eh

Convergence Tolerance:
 Convergence Check Mode ConvCheckMode   .... Total+1el-Energy
 Convergence forced     ConvForced      .... 0
 Energy Change          TolE            ....  1.000e-06 Eh
 1-El. energy change                    ....  1.000e-03 Eh
 Orbital Gradient       TolG            ....  5.000e-05
 Orbital Rotation angle TolX            ....  5.000e-05
 DIIS Error             TolErr          ....  1.000e-06

------------------------------
INITIAL GUESS: MODEL POTENTIAL
------------------------------
Loading Hartree-Fock densities                     ... done
Calculating cut-offs                               ... done
Initializing the effective Hamiltonian             ... done
Setting up the integral package (SHARK)            ... done
Starting the Coulomb interaction                   ... done (   0.0 sec)
Making the grid                                    ... done (   0.2 sec)
Mapping shells                                     ... done
Starting the XC term evaluation                    ... done (   0.1 sec)
  promolecular density results
     # of electrons  =     41.998997362
     EX              =    -31.710055173
     EC              =     -1.489749937
     EX+EC           =    -33.199805110
Transforming the Hamiltonian                       ... done (   0.0 sec)
Diagonalizing the Hamiltonian                      ... done (   0.0 sec)
Back transforming the eigenvectors                 ... done (   0.0 sec)
Now organizing SCF variables                       ... done
                      ------------------
                      INITIAL GUESS DONE (   0.4 sec)
                      ------------------
             **** ENERGY FILE WAS UPDATED (single_point_tzvpd.en.tmp) ****
Finished Guess after   3.2 sec
Maximum memory used throughout the entire GUESS-calculation: 14.9 MB


           ************************************************************
           *        Program running with 64 parallel MPI-processes    *
           *              working on a common directory               *
           ************************************************************

-------------------------------------------------------------------------------------------
                                      ORCA LEAN-SCF
                              memory conserving SCF solver
-------------------------------------------------------------------------------------------

--------------------
CPCM SOLVATION MODEL
--------------------
CPCM parameters:
  Epsilon                                         ...     INFINITY
  Refrac                                          ...       1.3300
  Rsolv                                           ...       1.3000
  Surface type                                    ... GAUSSIAN VDW
  Discretization scheme                           ... Constant charge density
    Threshold for H atoms                         ...       5.0000 (charges/Ang^2)
    Threshold for non-H atoms                     ...       5.0000 (charges/Ang^2)
  Epsilon function type                           ...         CPCM
Solvent:                                          ... CONDUCTOR
Radii:
  Scheme                                          ... Element-dependent radii
  Radius for C  used is    3.7795 Bohr (=   2.0000 Ang.)
  Radius for H  used is    2.4566 Bohr (=   1.3000 Ang.)
  Radius for O  used is    3.2503 Bohr (=   1.7200 Ang.)
Calculating surface                               ...        done! (  0.0s)
Cavity surface points                             ...          903
Cavity Volume                                     ...     735.4801
Cavity Surface-area                               ...     471.5125
Calculating surface distance matrix               ...        done! (  0.0s)
Performing Cholesky decomposition & store         ...        done! (  0.0s)
Overall time for CPCM initialization              ...                 0.0s

----------------------------------------D-I-I-S--------------------------------------------
Iteration    Energy (Eh)           Delta-E    RMSDP     MaxDP     DIISErr   Damp  Time(sec)
-------------------------------------------------------------------------------------------
               ***  Starting incremental Fock matrix formation  ***
    1    -233.5743936411301718     0.00e+00  3.69e-03  3.06e-01  2.42e-01  0.700   1.2
    2    -233.6686585722834764    -9.43e-02  2.41e-03  1.90e-01  8.54e-02  0.700   1.0
                               ***Turning on AO-DIIS***
    3    -233.6994478741388264    -3.08e-02  8.89e-04  2.42e-02  2.21e-02  0.700   0.9
    4    -233.7181374038407000    -1.87e-02  1.71e-03  4.58e-02  9.74e-03  0.000   0.9
    5    -233.7614333466486016    -4.33e-02  2.65e-04  1.87e-02  1.22e-02  0.000   0.9
                              *** Initializing SOSCF ***
---------------------------------------S-O-S-C-F--------------------------------------
Iteration    Energy (Eh)           Delta-E    RMSDP     MaxDP     MaxGrad    Time(sec)
--------------------------------------------------------------------------------------
    6    -233.7619852489480365    -5.52e-04  1.08e-04  3.70e-03  2.77e-03     1.0
               *** Restarting incremental Fock matrix formation ***
    7    -233.7620375744588443    -5.23e-05  1.36e-04  6.71e-03  4.11e-04     0.9
    8    -233.7620304164475158     7.16e-06  4.25e-05  3.07e-03  6.25e-04     0.9
    9    -233.7620449990793361    -1.46e-05  4.29e-05  3.28e-03  5.35e-05     0.9
   10    -233.7620447770755447     2.22e-07  1.23e-05  1.08e-03  7.33e-05     0.9
                 **** Energy Check signals convergence ****

               *****************************************************
               *                     SUCCESS                       *
               *           SCF CONVERGED AFTER  10 CYCLES          *
               *****************************************************

             **** ENERGY FILE WAS UPDATED (single_point_tzvpd.en.tmp) ****

----------------
TOTAL SCF ENERGY
----------------

Total Energy       :       -233.76204477707554 Eh           -6360.98862 eV

Components:
Nuclear Repulsion  :        184.96136198544363 Eh            5033.05454 eV
Electronic Energy  :       -418.71310454606538 Eh          -11393.76282 eV
One Electron Energy:       -681.89785610404681 Eh          -18555.38400 eV
Two Electron Energy:        263.18475155798143 Eh            7161.62118 eV
CPCM Dielectric    :         -0.01030221645382 Eh              -0.28034 eV

Virial components:
Potential Energy   :       -466.25267507995881 Eh          -12687.38030 eV
Kinetic Energy     :        232.49063030288326 Eh            6326.39168 eV
Virial Ratio       :          2.00546866973751

DFT components:
N(Alpha)           :       21.000009218574 electrons
N(Beta)            :       21.000009218574 electrons
N(Total)           :       42.000018437148 electrons
E(X)               :      -32.539299702099 Eh       
E(C)               :       -1.487096510733 Eh       
E(XC)              :      -34.026396212831 Eh       

CPCM Solvation Model Properties:
Surface-charge          :         -0.03260632529034
Corrected charge        :          0.00000000000000
Outlying charge corr.   :          0.00008930884157 Eh               0.00243 eV
Free-energy (cav+disp)  :  This term is not implemented in the current solvation scheme

---------------
SCF CONVERGENCE
---------------

  Last Energy change         ...   -2.2200e-07  Tolerance :   1.0000e-06
  Last MAX-Density change    ...    1.0826e-03  Tolerance :   1.0000e-05
  Last RMS-Density change    ...    1.2349e-05  Tolerance :   1.0000e-06
  Last DIIS Error            ...    2.7712e-03  Tolerance :   1.0000e-06
  Last Orbital Gradient      ...    7.3250e-05  Tolerance :   5.0000e-05
  Last Orbital Rotation      ...    7.2998e-05  Tolerance :   5.0000e-05


----------------
ORBITAL ENERGIES
----------------

  NO   OCC          E(Eh)            E(eV) 
   0   2.0000     -18.771441      -510.7969 
   1   2.0000      -9.934420      -270.3293 
   2   2.0000      -9.889430      -269.1051 
   3   2.0000      -9.886219      -269.0177 
   4   2.0000      -9.882685      -268.9215 
   5   2.0000      -0.940350       -25.5882 
   6   2.0000      -0.716860       -19.5067 
   7   2.0000      -0.643010       -17.4972 
   8   2.0000      -0.561357       -15.2753 
   9   2.0000      -0.516731       -14.0610 
  10   2.0000      -0.459755       -12.5106 
  11   2.0000      -0.418924       -11.3995 
  12   2.0000      -0.391996       -10.6667 
  13   2.0000      -0.383847       -10.4450 
  14   2.0000      -0.343232        -9.3398 
  15   2.0000      -0.334673        -9.1069 
  16   2.0000      -0.312584        -8.5058 
  17   2.0000      -0.293073        -7.9749 
  18   2.0000      -0.287270        -7.8170 
  19   2.0000      -0.277763        -7.5583 
  20   2.0000      -0.228365        -6.2141 
  21   0.0000      -0.001010        -0.0275 
  22   0.0000       0.011762         0.3201 
  23   0.0000       0.024573         0.6687 
  24   0.0000       0.034515         0.9392 
  25   0.0000       0.042786         1.1643 
  26   0.0000       0.060145         1.6366 
  27   0.0000       0.070238         1.9113 
  28   0.0000       0.078021         2.1230 
  29   0.0000       0.086528         2.3545 
  30   0.0000       0.090844         2.4720 
  31   0.0000       0.102921         2.8006 
*Only the first 10 virtual orbitals were printed.

                    ********************************
                    * MULLIKEN POPULATION ANALYSIS *
                    ********************************

-----------------------
MULLIKEN ATOMIC CHARGES
-----------------------
   0 C :   -1.348157
   1 C :   -0.247174
   2 C :   -0.392870
   3 C :   -0.482266
   4 H :    0.282559
   5 H :    0.341435
   6 H :    0.338443
   7 H :    0.364102
   8 H :    0.287295
   9 H :    0.284534
  10 H :    0.219343
  11 H :    0.311851
  12 O :   -0.589618
  13 H :    0.279100
  14 H :    0.351425
Sum of atomic charges:   -0.0000000

--------------------------------
MULLIKEN REDUCED ORBITAL CHARGES
--------------------------------
  0 C s       :     3.546144  s :     3.546144
      pz      :     1.327955  p :     3.704015
      px      :     1.050395
      py      :     1.325665
      dz2     :     0.043770  d :     0.094801
      dxz     :    -0.000292
      dyz     :     0.014975
      dx2y2   :     0.016559
      dxy     :     0.019788
      f0      :     0.000925  f :     0.003197
      f+1     :     0.000383
      f-1     :     0.000026
      f+2     :     0.000264
      f-2     :     0.000057
      f+3     :     0.000778
      f-3     :     0.000764

  1 C s       :     3.214397  s :     3.214397
      pz      :     1.109737  p :     3.111469
      px      :     0.980545
      py      :     1.021186
      dz2     :    -0.008217  d :    -0.084248
      dxz     :    -0.035269
      dyz     :    -0.028389
      dx2y2   :     0.004961
      dxy     :    -0.017334
      f0      :     0.000978  f :     0.005557
      f+1     :     0.000749
      f-1     :     0.000334
      f+2     :     0.000577
      f-2     :     0.000436
      f+3     :     0.001181
      f-3     :     0.001303

  2 C s       :     3.225841  s :     3.225841
      pz      :     1.110078  p :     3.144068
      px      :     1.002970
      py      :     1.031020
      dz2     :     0.006096  d :     0.017521
      dxz     :    -0.014381
      dyz     :    -0.018955
      dx2y2   :     0.025855
      dxy     :     0.018906
      f0      :     0.000985  f :     0.005440
      f+1     :     0.000766
      f-1     :     0.000338
      f+2     :     0.000570
      f-2     :     0.000362
      f+3     :     0.001145
      f-3     :     0.001274

  3 C s       :     3.440015  s :     3.440015
      pz      :     1.104651  p :     2.899556
      px      :     0.835771
      py      :     0.959133
      dz2     :     0.067892  d :     0.132431
      dxz     :    -0.005878
      dyz     :    -0.005613
      dx2y2   :     0.053678
      dxy     :     0.022352
      f0      :     0.001247  f :     0.010264
      f+1     :     0.001208
      f-1     :     0.000845
      f+2     :     0.001246
      f-2     :     0.001342
      f+3     :     0.002023
      f-3     :     0.002354

  4 H s       :     0.666845  s :     0.666845
      pz      :     0.011941  p :     0.050596
      px      :     0.010112
      py      :     0.028543

  5 H s       :     0.584405  s :     0.584405
      pz      :     0.043135  p :     0.074161
      px      :     0.007669
      py      :     0.023356

  6 H s       :     0.587090  s :     0.587090
      pz      :     0.024880  p :     0.074468
      px      :     0.010755
      py      :     0.038832

  7 H s       :     0.563954  s :     0.563954
      pz      :     0.020344  p :     0.071945
      px      :     0.026958
      py      :     0.024643

  8 H s       :     0.656826  s :     0.656826
      pz      :     0.037713  p :     0.055878
      px      :     0.017528
      py      :     0.000638

  9 H s       :     0.655958  s :     0.655958
      pz      :     0.006501  p :     0.059509
      px      :     0.020195
      py      :     0.032812

 10 H s       :     0.725518  s :     0.725518
      pz      :     0.036430  p :     0.055140
      px      :     0.013800
      py      :     0.004910

 11 H s       :     0.650872  s :     0.650872
      pz      :     0.002740  p :     0.037276
      px      :     0.004574
      py      :     0.029962

 12 O s       :     3.854113  s :     3.854113
      pz      :     1.658171  p :     4.694419
      px      :     1.696619
      py      :     1.339629
      dz2     :     0.006925  d :     0.039579
      dxz     :     0.007018
      dyz     :     0.009693
      dx2y2   :     0.012076
      dxy     :     0.003868
      f0      :     0.000140  f :     0.001507
      f+1     :     0.000113
      f-1     :     0.000170
      f+2     :     0.000348
      f-2     :     0.000204
      f+3     :     0.000262
      f-3     :     0.000269

 13 H s       :     0.666722  s :     0.666722
      pz      :     0.029859  p :     0.054178
      px      :     0.012092
      py      :     0.012227

 14 H s       :     0.599063  s :     0.599063
      pz      :     0.016614  p :     0.049513
      px      :     0.015010
      py      :     0.017888



                     *******************************
                     * LOEWDIN POPULATION ANALYSIS *
                     *******************************

----------------------
LOEWDIN ATOMIC CHARGES
----------------------
   0 C :   -0.143920
   1 C :   -0.294549
   2 C :   -0.224484
   3 C :   -0.323774
   4 H :    0.126370
   5 H :    0.078293
   6 H :    0.078272
   7 H :    0.072974
   8 H :    0.116511
   9 H :    0.116590
  10 H :    0.123262
  11 H :    0.124887
  12 O :   -0.100933
  13 H :    0.128766
  14 H :    0.121734

-------------------------------
LOEWDIN REDUCED ORBITAL CHARGES
-------------------------------
  0 C s       :     2.752697  s :     2.752697
      pz      :     0.967599  p :     2.888478
      px      :     0.955130
      py      :     0.965750
      dz2     :     0.108150  d :     0.476324
      dxz     :     0.104719
      dyz     :     0.028040
      dx2y2   :     0.089222
      dxy     :     0.146192
      f0      :     0.004970  f :     0.026421
      f+1     :     0.002873
      f-1     :     0.000448
      f+2     :     0.004548
      f-2     :     0.004098
      f+3     :     0.004766
      f-3     :     0.004719

  1 C s       :     2.696521  s :     2.696521
      pz      :     0.929907  p :     2.777609
      px      :     0.919541
      py      :     0.928161
      dz2     :     0.178464  d :     0.780242
      dxz     :     0.142171
      dyz     :     0.068109
      dx2y2   :     0.213398
      dxy     :     0.178100
      f0      :     0.005688  f :     0.040176
      f+1     :     0.004640
      f-1     :     0.002174
      f+2     :     0.006633
      f-2     :     0.006049
      f+3     :     0.007146
      f-3     :     0.007846

  2 C s       :     2.696867  s :     2.696867
      pz      :     0.923180  p :     2.746503
      px      :     0.904480
      py      :     0.918843
      dz2     :     0.175762  d :     0.742329
      dxz     :     0.132487
      dyz     :     0.072033
      dx2y2   :     0.199464
      dxy     :     0.162583
      f0      :     0.005581  f :     0.038784
      f+1     :     0.004640
      f-1     :     0.002186
      f+2     :     0.006671
      f-2     :     0.005433
      f+3     :     0.006613
      f-3     :     0.007661

  3 C s       :     2.699365  s :     2.699365
      pz      :     0.917181  p :     2.645636
      px      :     0.868590
      py      :     0.859865
      dz2     :     0.193899  d :     0.903221
      dxz     :     0.158651
      dyz     :     0.105594
      dx2y2   :     0.241862
      dxy     :     0.203214
      f0      :     0.008159  f :     0.075552
      f+1     :     0.007748
      f-1     :     0.005410
      f+2     :     0.011296
      f-2     :     0.014844
      f+3     :     0.012454
      f-3     :     0.015640

  4 H s       :     0.683221  s :     0.683221
      pz      :     0.055077  p :     0.190409
      px      :     0.048566
      py      :     0.086766

  5 H s       :     0.701190  s :     0.701190
      pz      :     0.108126  p :     0.220517
      px      :     0.055086
      py      :     0.057306

  6 H s       :     0.701191  s :     0.701191
      pz      :     0.063219  p :     0.220537
      px      :     0.056903
      py      :     0.100416

  7 H s       :     0.707088  s :     0.707088
      pz      :     0.065592  p :     0.219937
      px      :     0.072347
      py      :     0.081999

  8 H s       :     0.682233  s :     0.682233
      pz      :     0.098350  p :     0.201257
      px      :     0.052828
      py      :     0.050078

  9 H s       :     0.682234  s :     0.682234
      pz      :     0.057574  p :     0.201176
      px      :     0.055620
      py      :     0.087982

 10 H s       :     0.676681  s :     0.676681
      pz      :     0.097596  p :     0.200057
      px      :     0.052747
      py      :     0.049714

 11 H s       :     0.675405  s :     0.675405
      pz      :     0.056768  p :     0.199708
      px      :     0.054409
      py      :     0.088531

 12 O s       :     3.305301  s :     3.305301
      pz      :     1.555758  p :     4.470692
      px      :     1.593795
      py      :     1.321139
      dz2     :     0.052024  d :     0.320146
      dxz     :     0.041655
      dyz     :     0.066726
      dx2y2   :     0.104990
      dxy     :     0.054751
      f0      :     0.000340  f :     0.004794
      f+1     :     0.000443
      f-1     :     0.000675
      f+2     :     0.001067
      f-2     :     0.000740
      f+3     :     0.000768
      f-3     :     0.000761

 13 H s       :     0.681699  s :     0.681699
      pz      :     0.101175  p :     0.189535
      px      :     0.045591
      py      :     0.042769

 14 H s       :     0.576242  s :     0.576242
      pz      :     0.104083  p :     0.302023
      px      :     0.080849
      py      :     0.117092



                      *****************************
                      * MAYER POPULATION ANALYSIS *
                      *****************************

  NA   - Mulliken gross atomic population
  ZA   - Total nuclear charge
  QA   - Mulliken gross atomic charge
  VA   - Mayer's total valence
  BVA  - Mayer's bonded valence
  FA   - Mayer's free valence

  ATOM       NA         ZA         QA         VA         BVA        FA
  0 C      7.3482     6.0000    -1.3482     3.7300     3.7300    -0.0000
  1 C      6.2472     6.0000    -0.2472     3.2219     3.2219    -0.0000
  2 C      6.3929     6.0000    -0.3929     3.4848     3.4848    -0.0000
  3 C      6.4823     6.0000    -0.4823     3.7480     3.7480     0.0000
  4 H      0.7174     1.0000     0.2826     0.9528     0.9528     0.0000
  5 H      0.6586     1.0000     0.3414     0.9955     0.9955    -0.0000
  6 H      0.6616     1.0000     0.3384     1.0038     1.0038     0.0000
  7 H      0.6359     1.0000     0.3641     0.9766     0.9766    -0.0000
  8 H      0.7127     1.0000     0.2873     0.9385     0.9385     0.0000
  9 H      0.7155     1.0000     0.2845     0.9471     0.9471    -0.0000
 10 H      0.7807     1.0000     0.2193     1.0285     1.0285    -0.0000
 11 H      0.6881     1.0000     0.3119     0.8957     0.8957    -0.0000
 12 O      8.5896     8.0000    -0.5896     1.7807     1.7807     0.0000
 13 H      0.7209     1.0000     0.2791     0.9901     0.9901     0.0000
 14 H      0.6486     1.0000     0.3514     0.8839     0.8839     0.0000

  Mayer bond orders larger than 0.100000
B(  0-C ,  1-C ) :   0.6213 B(  0-C ,  2-C ) :   0.2222 B(  0-C ,  5-H ) :   0.9361 
B(  0-C ,  6-H ) :   0.9422 B(  0-C ,  7-H ) :   0.9249 B(  1-C ,  2-C ) :   0.6465 
B(  1-C ,  3-C ) :   0.2637 B(  1-C ,  8-H ) :   0.9401 B(  1-C ,  9-H ) :   0.9382 
B(  2-C ,  3-C ) :   0.7218 B(  2-C , 10-H ) :   1.0056 B(  2-C , 11-H ) :   0.9127 
B(  3-C ,  4-H ) :   0.9302 B(  3-C , 12-O ) :   0.8198 B(  3-C , 13-H ) :   0.9543 
B( 12-O , 14-H ) :   0.8485 

-------
TIMINGS
-------

Total SCF time: 0 days 0 hours 0 min 13 sec 

Total time                  ....      13.256 sec
Sum of individual times     ....      12.863 sec  ( 97.0%)

SCF preparation             ....       3.162 sec  ( 23.9%)
Fock matrix formation       ....       8.516 sec  ( 64.2%)
  Startup                   ....       0.149 sec  (  1.7% of F)
  Split-RI-J                ....       0.507 sec  (  6.0% of F)
  XC integration            ....       7.320 sec  ( 86.0% of F)
    XC Preparation          ....       0.000 sec  (  0.0% of XC)
    Basis function eval.    ....       0.053 sec  (  0.7% of XC)
    Density eval.           ....       0.050 sec  (  0.7% of XC)
    XC-Functional eval.     ....       0.007 sec  (  0.1% of XC)
    XC-Potential eval.      ....       0.091 sec  (  1.2% of XC)
  CPCM terms                ....       0.278 sec  (  3.3% of F)
Diagonalization             ....       0.000 sec  (  0.0%)
Density matrix formation    ....       0.242 sec  (  1.8%)
Total Energy calculation    ....       0.163 sec  (  1.2%)
Population analysis         ....       0.073 sec  (  0.5%)
Orbital Transformation      ....       0.079 sec  (  0.6%)
Orbital Orthonormalization  ....       0.000 sec  (  0.0%)
DIIS solution               ....       0.458 sec  (  3.5%)
SOSCF solution              ....       0.170 sec  (  1.3%)
Finished LeanSCF after  13.3 sec

Maximum memory used throughout the entire LEANSCF-calculation: 20.9 MB

-------------------------   --------------------
FINAL SINGLE POINT ENERGY      -233.762044777076
-------------------------   --------------------



           ************************************************************
           *        Program running with 64 parallel MPI-processes    *
           *              working on a common directory               *
           ************************************************************

------------------------------------------------------------------------------
                              ORCA PROPERTY CALCULATIONS
------------------------------------------------------------------------------

GBWName                                 ... single_point_tzvpd.gbw
Number of atoms                         ...     15
Number of basis functions               ...    278
Max core memory                         ...   2000 MB

Electric properties:
Dipole moment                           ... YES
Quadrupole moment                       ...  NO
Static polarizability (Dipole/Dipole)   ...  NO
Static polarizability (Dipole/Quad.)    ...  NO
Static polarizability (Quad./Quad.)     ...  NO
Static polarizability (Velocity)        ...  NO

Atomic electric properties:
Dipole moment                           ...  NO
Quadrupole moment                       ...  NO
Static polarizability                   ...  NO

Choice of electric origin               ... Center of mass
Position of electric origin             ...     0.673227    -0.610100    -0.638361

General magnetic properties:
Magnetizability                         ...  NO

EPR properties:
g-Tensor (aka g-matrix)                 ...  NO
Zero-Field splitting spin-orbit         ...  NO
Zero-field splitting spin-spin          ...  NO
Hyperfine couplings                     ...  NO (   0 nuclei)
Quadrupole couplings                    ...  NO (   0 nuclei)
Contact density                         ...  NO (   0 nuclei)

NMR properties:
Chemical shifts                         ...  NO (   0 nuclei)
Spin-rotation constants                 ...  NO (   0 nuclei)
Spin-spin couplings                     ...  NO (   0 nuclei,    0 pairs)

Choice of magnetic origin               ... GIAO
Position of magnetic origin             ...     0.000000     0.000000     0.000000

Properties with geometric perturbations:
SCF Hessian                             ...  NO
IR spectrum                             ...  NO
VCD spectrum                            ...  NO
X-ray spectroscopy properties:
SCF XES/XAS/RIXS spectra                ...  NO


-------------
DIPOLE MOMENT
-------------

Method             : SCF
Type of density    : Electron Density
Multiplicity       :   1
Irrep              :   0
Energy             :  -233.7620447770755447 Eh
Relativity type    : 
Basis              : AO
                                X                 Y                 Z
Electronic contribution:      5.088654539      -1.589139748       0.557755509
Nuclear contribution   :     -5.571692799       1.464896734      -1.254552410
                        -----------------------------------------
Total Dipole Moment    :     -0.483038260      -0.124243014      -0.696796901
                        -----------------------------------------
Magnitude (a.u.)       :      0.856906184
Magnitude (Debye)      :      2.178082425



--------------------
Rotational spectrum 
--------------------
 
Rotational constants in cm-1:             0.601276             0.066712             0.063375 
Rotational constants in MHz :         18025.793314          1999.988611          1899.943080 

Dipole components along the rotational axes: 
x,y,z [a.u.] :    -0.473174     0.137125     0.701136 
x,y,z [Debye]:    -1.202713     0.348545     1.782145 

 

Dipole moment calculation done in   0.0 sec 

Maximum memory used throughout the entire PROP-calculation: 12.4 MB

--------------------------------
SUGGESTED CITATIONS FOR THIS RUN
--------------------------------

Below you find a list of papers that are relevant to this ORCA run
We neither can nor want to force you to cite these papers, but we appreciate if you do
You receive ORCA, which is the product of decades of hard work by many enthusiastic individuals, for free
The only thing we kindly ask in return is that you cite our papers,
We deeply appreciate it, if you show your appreciation for ORCA by not just citing the generic ORCA reference.

Please note that relegating all ORCA citations to the supporting information does *not* help us.
SI sections are not indexed - citations you put there will not count into any citation statistics
But we need these citations in order to attract the funding resources that allow us to do what we are doing

Therefore, if you are a happy ORCA user, please consider citing a few of the papers listed below in the main body of your paper

In addition to the list printed below, the program has created the file single_point_tzvpd.bibtex that contains the list in bibtex format
You can import this file easily into all common literature databanks and citation aid programs


List of essential papers. We consider these as the minimum necessary citations

  1. Neese,F.
     Software update: the ORCA program system, version 5.0
     WIRES Comput. Molec. Sci., 2022 12(1)e1606
     doi.org/10.1002/wcms.1606

List of papers to cite with high priority. The work reported in these papers was absolutely
necessary for this run to complete.
Our perspective: the developers of density functionals and basis sets usually get cited in chemistry papers
Good! But without the algorithms to do something with them, the functionals or basis sets would not do anything.
Hence, in our opinion, the algorithm design and method developments papers are equally worthy of getting cited

  1. Neese,F.
     An improvement of the resolution of the identity approximation for the formation of the Coulomb matrix
     J. Comp. Chem., 2003 24(14)1740-1747
     doi.org/10.1002/jcc.10318
  2. Garcia-Rates,M.; Neese,F.
     Effect of the Solute Cavity on the Solvation Energy and its Derivatives within the Framework of the Gaussian Charge Scheme
     J. Comput. Chem., 2020 41 922-939
     doi.org/10.1002/jcc.26139
  3. Neese,F.
     The SHARK Integral Generation and Digestion System
     J. Comp. Chem., 2022  1-16
     doi.org/10.1002/jcc.26942

List of suggested additional citations. These are papers that are important in the 'surrounding' of 
of this run, or papers that preceded the highly important papers. If you like your results we are grateful for a citation.

  1. Neese,F.
     The ORCA program system
     WIRES Comput. Molec. Sci., 2012 2(1)73-78
     doi.org/10.1002/wcms.81
  2. Neese,F.
     Software update: the ORCA program system, version 4.0
     WIRES Comput. Molec. Sci., 2018 8(1)1-6
     doi.org/10.1002/wcms.1327
  3. Neese,F.; Wennmohs,F.; Becker,U.; Riplinger,C.
     The ORCA quantum chemistry program package
     J. Chem. Phys., 2020 152 Art. No. L224108
     doi.org/10.1063/5.0004608

List of optional additional citations

  1. Neese,F.
     Approximate second-order SCF convergence for spin unrestricted wavefunctions
     Chem. Phys. Lett., 2000 325(1-3)93-98
     doi.org/10.1016/s0009-2614(00)00662-x

Timings for individual modules:

Sum of individual times          ...       26.072 sec (=   0.435 min)
Startup calculation              ...        4.103 sec (=   0.068 min)  15.7 %
SCF iterations                   ...       18.268 sec (=   0.304 min)  70.1 %
Property calculations            ...        3.701 sec (=   0.062 min)  14.2 %
                             ****ORCA TERMINATED NORMALLY****
TOTAL RUN TIME: 0 days 0 hours 0 minutes 29 seconds 648 msec
