
                                 *****************
                                 * O   R   C   A *
                                 *****************

                                            #,                                       
                                            ###                                      
                                            ####                                     
                                            #####                                    
                                            ######                                   
                                           ########,                                 
                                     ,,################,,,,,                         
                               ,,#################################,,                 
                          ,,##########################################,,             
                       ,#########################################, ''#####,          
                    ,#############################################,,   '####,        
                  ,##################################################,,,,####,       
                ,###########''''           ''''###############################       
              ,#####''   ,,,,##########,,,,          '''####'''          '####       
            ,##' ,,,,###########################,,,                        '##       
           ' ,,###''''                  '''############,,,                           
         ,,##''                                '''############,,,,        ,,,,,,###''
      ,#''                                            '''#######################'''  
     '                                                          ''''####''''         
             ,#######,   #######,   ,#######,      ##                                
            ,#'     '#,  ##    ##  ,#'     '#,    #''#        ,####,   ,####,        
            ##       ##  ##   ,#'  ##            #'  '#       #'       #'  '#        
            ##       ##  #######   ##           ,######,      #####,   #    #        
            '#,     ,#'  ##    ##  '#,     ,#' ,#      #,     #,   #   #,  ,#        
             '#######'   ##     ##  '#######'  #'      '#     '####' # '####'        



                #########################################################
                #                        -***-                          #
                #          Department of theory and spectroscopy        #
                #                                                       #
                #                      Frank Neese                      #
                #                                                       #
                #     Directorship, Architecture, Infrastructure        #
                #                    SHARK, DRIVERS                     #
                #        Core code/Algorithms in most modules           #
                #                                                       #
                #        Max Planck Institute fuer Kohlenforschung      #
                #                Kaiser Wilhelm Platz 1                 #
                #                 D-45470 Muelheim/Ruhr                 #
                #                      Germany                          #
                #                                                       #
                #                  All rights reserved                  #
                #                        -***-                          #
                #########################################################


                         Program Version 6.0.0  -   RELEASE  -


 With contributions from (in alphabetic order):
   Daniel Aravena         : Magnetic Suceptibility
   Michael Atanasov       : Ab Initio Ligand Field Theory (pilot matlab implementation)
   Alexander A. Auer      : GIAO ZORA, VPT2 properties, NMR spectrum
   Ute Becker             : All parallelization in ORCA, NUMFREQ, NUMCALC
   Giovanni Bistoni       : ED, misc. LED, open-shell LED, HFLD
   Martin Brehm           : Molecular dynamics
   Dmytro Bykov           : pre 5.0 version of the SCF Hessian
   Marcos Casanova-Páez   : Triplet and SCS-CIS(D). UHF-(DLPNO)-IP/EA/STEOM-CCSD. UHF-CVS-IP/STEOM-CCSD
   Vijay G. Chilkuri      : MRCI spin determinant printing, contributions to CSF-ICE
   Pauline Colinet        : FMM embedding
   Dipayan Datta          : RHF DLPNO-CCSD density
   Achintya Kumar Dutta   : EOM-CC, STEOM-CC
   Nicolas Foglia         : Exact transition moments, OPA infrastructure, MCD improvements
   Dmitry Ganyushin       : Spin-Orbit,Spin-Spin,Magnetic field MRCI
   Miquel Garcia          : C-PCM and meta-GGA Hessian, CCSD/C-PCM, Gaussian charge scheme
   Tiago L. C. Gouveia    : GS-ROHF, GS-ROCIS
   Yang Guo               : DLPNO-NEVPT2, F12-NEVPT2, CIM, IAO-localization
   Andreas Hansen         : Spin unrestricted coupled pair/coupled cluster methods
   Ingolf Harden          : AUTO-CI MPn and infrastructure 
   Benjamin Helmich-Paris : MC-RPA, TRAH-(SCF,CASSCF), AVAS, COSX integrals, SCF dyn. polar.
   Lee Huntington         : MR-EOM, pCC
   Robert Izsak           : Overlap fitted RIJCOSX, COSX-SCS-MP3, EOM
   Riya Kayal             : Wick's Theorem for AUTO-CI, AUTO-CI UHF-CCSDT
   Emily Kempfer          : AUTO-CI, RHF CISDT and CCSDT
   Christian Kollmar      : KDIIS, OOCD, Brueckner-CCSD(T), CCSD density, CASPT2, CASPT2-K, improved NEVPT2
   Axel Koslowski         : Symmetry handling
   Simone Kossmann        : Meta GGA functionals, TD-DFT gradient, OOMP2, (MP2 Hessian; deprecated post 5.0)
   Lucas Lang             : DCDCAS
   Marvin Lechner         : AUTO-CI (C++ implementation), FIC-MRCC
   Spencer Leger          : CASSCF response
   Dagmar Lenk            : GEPOL surface, SMD, ORCA-2-JSON
   Dimitrios Liakos       : Extrapolation schemes; Compound Job, initial MDCI parallelization
   Dimitrios Manganas     : Further ROCIS development; embedding schemes. LFT, Crystal Embedding
   Dimitrios Pantazis     : SARC Basis sets
   Anastasios Papadopoulos: AUTO-CI, single reference methods and gradients
   Taras Petrenko         : pre 6.0 DFT Hessian and TD-DFT gradient, (ASA, deprecated), ECA, 1-Electron XAS/XES, NRVS
   Peter Pinski           : DLPNO-MP2, DLPNO-MP2 Gradient
   Christoph Reimann      : Effective Core Potentials
   Marius Retegan         : Local ZFS, SOC
   Christoph Riplinger    : Optimizer, TS searches, QM/MM, DLPNO-CCSD(T), (RO)-DLPNO pert. Triples
   Michael Roemelt        : Original ROCIS implementation
   Masaaki Saitow         : Open-shell DLPNO-CCSD energy and density
   Barbara Sandhoefer     : DKH picture change effects
   Kantharuban Sivalingam : CASSCF convergence/infrastructure, NEVPT2 and variants, FIC-MRCI
   Bernardo de Souza      : ESD, SOC TD-DFT
   Georgi Stoychev        : AutoAux, RI-MP2 NMR, DLPNO-MP2 response, X2C
   Van Anh Tran           : RI-MP2 g-tensors
   Willem Van den Heuvel  : Paramagnetic NMR
   Zikuan Wang            : NOTCH, Electric field optimization 
   Frank Wennmohs         : Technical directorship and infrastructure
   Hang Xu                : AUTO-CI-Response properties 


 We gratefully acknowledge several colleagues who have allowed us to
 interface, adapt or use parts of their codes:
   Stefan Grimme, W. Hujo, H. Kruse, P. Pracht,  : VdW corrections, initial TS optimization,
                  C. Bannwarth, S. Ehlert,         DFT functionals, gCP, sTDA/sTD-DF
                  L. Wittmann, M. Mueller
   Ed Valeev, F. Pavosevic, A. Kumar             : LibInt (2-el integral package), F12 methods
   Garnet Chan, S. Sharma, J. Yang, R. Olivares  : DMRG
   Ulf Ekstrom                                   : XCFun DFT Library
   Mihaly Kallay                                 : mrcc  (arbitrary order and MRCC methods)
   Frank Weinhold                                : gennbo (NPA and NBO analysis)
   Simon Mueller                                 : openCOSMO-RS
   Christopher J. Cramer and Donald G. Truhlar   : smd solvation model
   Lars Goerigk                                  : TD-DFT with DH, B97 family of functionals
   V. Asgeirsson, H. Jonsson                     : NEB implementation
   FAccTs GmbH                                   : IRC, NEB, NEB-TS, DLPNO-Multilevel, CI-OPT
                                                   MM, QMMM, 2- and 3-layer-ONIOM, Crystal-QMMM,
                                                   LR-CPCM, SF, NACMEs, symmetry and pop. for TD-DFT,
                                                   nearIR, NL-DFT gradient (VV10), updates on ESD,
                                                   ML-optimized integration grids, MBIS, APM,
                                                   GOAT, DOCKER, SOLVATOR, interface openCOSMO-RS
   S Lehtola, MJT Oliveira, MAL Marques          : LibXC Library
   Liviu Ungur et al                             : ANISO software


 Your calculation uses the libint2 library for the computation of 2-el integrals
 For citations please refer to: http://libint.valeyev.net

 Your ORCA version has been built with support for libXC version: 6.2.2
 For citations please refer to: https://libxc.gitlab.io

 This ORCA versions uses:
   CBLAS   interface :  Fast vector & matrix operations
   LAPACKE interface :  Fast linear algebra routines
   SCALAPACK package :  Parallel linear algebra routines
   Shared memory     :  Shared parallel matrices
   BLAS/LAPACK       :  OpenBLAS 0.3.27  USE64BITINT DYNAMIC_ARCH NO_AFFINITY Zen SINGLE_THREADED
        Core in use  :  Zen
   Copyright (c) 2011-2014, The OpenBLAS Project


NOTE: MaxCore=2000 MB was set to SCF,MP2,MDCI,CIPSI,MRCI and CIS
      => If you want to overwrite this, your respective input block should be placed after the MaxCore statement


***************************************
The coordinates will be read from file: tbp_c000.xyz
***************************************


Warning: RI is on but no J-basis has been assigned. Assigning Def2/J (nothing to worry about!)
================================================================================

----- Orbital basis set information -----
Your calculation utilizes the basis: def2-TZVP
   F. Weigend and R. Ahlrichs, Phys. Chem. Chem. Phys. 7, 3297 (2005).

----- AuxJ basis set information -----
Your calculation utilizes the auxiliary basis: def2/J
   F. Weigend, Phys. Chem. Chem. Phys. 8, 1057 (2006).

================================================================================
                                        WARNINGS
                       Please study these warnings very carefully!
================================================================================


WARNING: Geometry Optimization
  ===> : Switching off AutoStart
         For restart on a previous wavefunction, please use MOREAD



***************************************
The coordinates will be read from file: geo_opt_tzvp.xyz
***************************************


Warning: RI is on but no J-basis has been assigned. Assigning Def2/J (nothing to worry about!)
================================================================================

----- Orbital basis set information -----
Your calculation utilizes the basis: def2-TZVPD
   F. Weigend and R. Ahlrichs, Phys. Chem. Chem. Phys. 7, 3297 (2005).
   D. Rappoport and F. Furche, J. Chem. Phys. 133, 134105 (2010)
   D. Rappoport, J. Chem. Phys. 155, 124102 (2021).

----- AuxJ basis set information -----
Your calculation utilizes the auxiliary basis: def2/J
   F. Weigend, Phys. Chem. Chem. Phys. 8, 1057 (2006).

================================================================================
                                        WARNINGS
                       Please study these warnings very carefully!
================================================================================


================================================================================
                                       INPUT FILE
================================================================================
NAME = input.dat
|  1> %MaxCore 2000
|  2> 
|  3> %base "geo_opt_tzvp"
|  4> 
|  5> %cpcm
|  6> radius[1]  1.3
|  7> radius[2]  1.601
|  8> radius[5]  2.048
|  9> radius[6]  2.0
| 10> radius[7]  1.83
| 11> radius[8]  1.72
| 12> radius[9]  1.72
| 13> radius[10]  1.771
| 14> radius[13]  2.152
| 15> radius[14]  2.2
| 16> radius[15]  2.106
| 17> radius[16]  2.16
| 18> radius[17]  2.05
| 19> radius[18]  2.184
| 20> radius[22]  2.261
| 21> radius[26]  2.195
| 22> radius[27]  2.153
| 23> radius[31]  2.172
| 24> radius[32]  2.7
| 25> radius[33]  2.148
| 26> radius[34]  2.2
| 27> radius[35]  2.16
| 28> radius[36]  2.354
| 29> radius[49]  2.245
| 30> radius[50]  2.55
| 31> radius[51]  2.402
| 32> radius[53]  2.32
| 33> radius[54]  2.524
| 34> radius[80]  1.978
| 35> radius[82]  2.36
| 36> radius[86]  2.573
| 37> cut_area 0.03571064825863687
| 38> end
| 39> 
| 40> ! OPT CPCM BP86 def2-TZVP PAL16
| 41> 
| 42> * xyzfile 0 1 tbp_c000.xyz
| 43> 
| 44> $new_job
| 45> 
| 46> ! CPCM BP86 def2-TZVPD SP PAL16
| 47> 
| 48> %base "single_point_tzvpd"
| 49> 
| 50> * xyzfile 0 1 geo_opt_tzvp.xyz
| 51> 
| 52>                          ****END OF INPUT****
================================================================================


                 $$$$$$$$$$$$$$$$$$$$$$$$$$$$$$$$$$$$$$$$$$$$$$ 
                 $ THERE ARE  2 JOBS TO BE PROCESSED THIS RUN $
                 $$$$$$$$$$$$$$$$$$$$$$$$$$$$$$$$$$$$$$$$$$$$$$ 




                 $$$$$$$$$$$$$$$$  JOB NUMBER  1 $$$$$$$$$$$$$$


                       *****************************
                       * Geometry Optimization Run *
                       *****************************

Geometry optimization settings:
Update method            Update   .... BFGS
Choice of coordinates    CoordSys .... (2022) Redundant Internals
Initial Hessian          InHess   .... Almloef's Model
Max. no of cycles        MaxIter  .... 132

Convergence Tolerances:
Energy Change            TolE     ....  5.0000e-06 Eh
Max. Gradient            TolMAXG  ....  3.0000e-04 Eh/bohr
RMS Gradient             TolRMSG  ....  1.0000e-04 Eh/bohr
Max. Displacement        TolMAXD  ....  4.0000e-03 bohr
RMS Displacement         TolRMSD  ....  2.0000e-03 bohr
Strict Convergence                .... False

------------------------------------------------------------------------------
                        ORCA OPTIMIZATION COORDINATE SETUP
------------------------------------------------------------------------------

The optimization will be done in redundant internal coordinates (2022)
Making redundant internal coordinates   ...  (2022 redundants) done
Evaluating the initial hessian          ...  (Almloef) done
Evaluating the coordinates              ...  done
Calculating the B-matrix                .... done
Calculating the G-matrix                .... done
Diagonalizing the G-matrix              .... done
Small eigenvalue found = 1.281e-03
Small eigenvalue found = 1.877e-03
Small eigenvalue found = 2.628e-03
Small eigenvalue found = 7.308e-03
Small eigenvalue found = 1.143e-02
Small eigenvalue found = 1.677e-02
Small eigenvalue found = 2.043e-02
Small eigenvalue found = 2.243e-02
Small eigenvalue found = 2.668e-02
The first mode is                       ....   70
The number of degrees of freedom        ....  126

    -----------------------------------------------------------------
                    Redundant Internal Coordinates


    -----------------------------------------------------------------
         Definition                    Initial Value    Approx d2E/dq
    -----------------------------------------------------------------
      1. B(P   1,O   0)                  1.4882         1.311466   
      2. B(O   2,P   1)                  1.6059         0.850967   
      3. B(C   3,O   2)                  1.4731         0.412316   
      4. B(C   4,C   3)                  1.5177         0.390787   
      5. B(C   5,C   4)                  1.5352         0.366556   
      6. B(C   6,C   5)                  1.5319         0.371020   
      7. B(O   7,P   1)                  1.5969         0.879544   
      8. B(C   8,O   7)                  1.4766         0.407076   
      9. B(C   9,C   8)                  1.5170         0.391899   
     10. B(C  10,C   9)                  1.5332         0.369199   
     11. B(C  11,C  10)                  1.5319         0.371041   
     12. B(O  12,P   1)                  1.5970         0.879311   
     13. B(C  13,O  12)                  1.4738         0.411321   
     14. B(C  14,C  13)                  1.5178         0.390640   
     15. B(C  15,C  14)                  1.5348         0.367110   
     16. B(C  16,C  15)                  1.5319         0.370920   
     17. B(H  17,C   3)                  1.0995         0.347697   
     18. B(H  18,C   3)                  1.1006         0.346350   
     19. B(H  19,C   4)                  1.1022         0.344294   
     20. B(H  20,C   4)                  1.1024         0.344099   
     21. B(H  21,C   5)                  1.1028         0.343601   
     22. B(H  22,C   5)                  1.1027         0.343649   
     23. B(H  23,C   6)                  1.0997         0.347476   
     24. B(H  24,C   6)                  1.1008         0.346104   
     25. B(H  25,C   6)                  1.1008         0.346059   
     26. B(H  26,C   8)                  1.1002         0.346873   
     27. B(H  27,C   8)                  1.0990         0.348359   
     28. B(H  28,C   9)                  1.1029         0.343475   
     29. B(H  29,C   9)                  1.1036         0.342533   
     30. B(H  30,C  10)                  1.1032         0.343028   
     31. B(H  31,C  10)                  1.1015         0.345246   
     32. B(H  32,C  11)                  1.1010         0.345815   
     33. B(H  33,C  11)                  1.0998         0.347423   
     34. B(H  34,C  11)                  1.1011         0.345753   
     35. B(H  35,C  13)                  1.0995         0.347772   
     36. B(H  36,C  13)                  1.0996         0.347630   
     37. B(H  37,C  14)                  1.1023         0.344201   
     38. B(H  38,C  14)                  1.1023         0.344128   
     39. B(H  39,C  15)                  1.1028         0.343553   
     40. B(H  40,C  15)                  1.1028         0.343603   
     41. B(H  41,C  16)                  1.0997         0.347453   
     42. B(H  42,C  16)                  1.1008         0.346106   
     43. B(H  43,C  16)                  1.1008         0.346053   
     44. A(O   2,P   1,O   7)          101.7393         0.554941   
     45. A(O   0,P   1,O  12)          110.2832         0.602832   
     46. A(O   2,P   1,O  12)          108.3305         0.554913   
     47. A(O   0,P   1,O   2)          115.2696         0.599035   
     48. A(O   7,P   1,O  12)          102.9272         0.558409   
     49. A(O   0,P   1,O   7)          117.1926         0.602863   
     50. A(P   1,O   2,C   3)          119.0649         0.450249   
     51. A(C   4,C   3,H  18)          111.2667         0.324644   
     52. A(C   4,C   3,H  17)          111.4652         0.324852   
     53. A(O   2,C   3,C   4)          108.2097         0.370090   
     54. A(O   2,C   3,H  17)          108.2873         0.325768   
     55. A(O   2,C   3,H  18)          108.4972         0.325560   
     56. A(H  17,C   3,H  18)          109.0213         0.287488   
     57. A(C   5,C   4,H  20)          109.7607         0.320913   
     58. A(C   3,C   4,H  19)          109.2503         0.324327   
     59. A(C   3,C   4,C   5)          111.6538         0.364976   
     60. A(H  19,C   4,H  20)          107.2498         0.286754   
     61. A(C   5,C   4,H  19)          109.7359         0.320942   
     62. A(C   3,C   4,H  20)          109.0843         0.324297   
     63. A(C   4,C   5,H  22)          109.2720         0.320844   
     64. A(C   6,C   5,H  21)          109.5891         0.321473   
     65. A(C   4,C   5,H  21)          109.2990         0.320837   
     66. A(C   6,C   5,H  22)          109.6111         0.321480   
     67. A(C   4,C   5,C   6)          112.5147         0.361752   
     68. A(H  21,C   5,H  22)          106.3657         0.286606   
     69. A(H  24,C   6,H  25)          107.7029         0.287244   
     70. A(H  23,C   6,H  25)          107.8185         0.287421   
     71. A(C   5,C   6,H  25)          111.0635         0.321848   
     72. A(H  23,C   6,H  24)          107.8185         0.287427   
     73. A(C   5,C   6,H  24)          111.0655         0.321855   
     74. A(C   5,C   6,H  23)          111.2119         0.322064   
     75. A(P   1,O   7,C   8)          119.4125         0.451908   
     76. A(H  26,C   8,H  27)          109.3237         0.287641   
     77. A(O   7,C   8,H  27)          108.1850         0.325185   
     78. A(C   9,C   8,H  26)          111.4688         0.324877   
     79. A(O   7,C   8,H  26)          107.8760         0.324956   
     80. A(C   9,C   8,H  27)          111.2239         0.325105   
     81. A(O   7,C   8,C   9)          108.6464         0.369458   
     82. A(H  28,C   9,H  29)          106.4315         0.286444   
     83. A(C  10,C   9,H  29)          109.5876         0.321050   
     84. A(C   8,C   9,H  29)          106.5417         0.324205   
     85. A(C  10,C   9,H  28)          110.3176         0.321195   
     86. A(C   8,C   9,H  28)          109.0537         0.324352   
     87. A(C   8,C   9,C  10)          114.5394         0.365603   
     88. A(H  30,C  10,H  31)          106.4186         0.286738   
     89. A(C  11,C  10,H  31)          109.5253         0.321727   
     90. A(C   9,C  10,H  31)          109.4924         0.321465   
     91. A(C  11,C  10,H  30)          109.7141         0.321388   
     92. A(C   9,C  10,H  30)          108.9620         0.321126   
     93. A(C   9,C  10,C  11)          112.5405         0.362200   
     94. A(H  33,C  11,H  34)          107.8131         0.287375   
     95. A(C  10,C  11,H  34)          111.1108         0.321804   
     96. A(H  32,C  11,H  33)          107.7489         0.287383   
     97. A(C  10,C  11,H  33)          111.2973         0.322058   
     98. A(H  32,C  11,H  34)          107.6329         0.287167   
     99. A(C  10,C  11,H  32)          111.0694         0.321814   
    100. A(P   1,O  12,C  13)          121.3660         0.452739   
    101. A(O  12,C  13,H  36)          108.4824         0.325628   
    102. A(C  14,C  13,H  35)          111.4277         0.324843   
    103. A(O  12,C  13,H  35)          108.0942         0.325650   
    104. A(O  12,C  13,C  14)          108.1360         0.369913   
    105. A(H  35,C  13,H  36)          109.1643         0.287663   
    106. A(C  14,C  13,H  36)          111.4298         0.324821   
    107. A(C  13,C  14,C  15)          111.6853         0.365046   
    108. A(C  15,C  14,H  38)          109.7663         0.320996   
    109. A(C  13,C  14,H  38)          109.1495         0.324282   
    110. A(C  15,C  14,H  37)          109.7799         0.321007   
    111. A(C  13,C  14,H  37)          109.1100         0.324293   
    112. A(H  37,C  14,H  38)          107.2416         0.286746   
    113. A(H  39,C  15,H  40)          106.3675         0.286593   
    114. A(C  16,C  15,H  40)          109.5705         0.321459   
    115. A(C  14,C  15,H  40)          109.2870         0.320916   
    116. A(C  16,C  15,H  39)          109.5554         0.321451   
    117. A(C  14,C  15,C  16)          112.5180         0.361829   
    118. A(C  14,C  15,H  39)          109.3534         0.320909   
    119. A(H  42,C  16,H  43)          107.7116         0.287243   
    120. A(H  41,C  16,H  43)          107.8003         0.287418   
    121. A(C  15,C  16,H  43)          111.1005         0.321833   
    122. A(H  41,C  16,H  42)          107.8158         0.287425   
    123. A(C  15,C  16,H  42)          111.0744         0.321841   
    124. A(C  15,C  16,H  41)          111.1777         0.322046   
    125. D(C   3,O   2,P   1,O   7)    171.0984         0.012563   
    126. D(C   3,O   2,P   1,O   0)     43.2024         0.012563   
    127. D(C   3,O   2,P   1,O  12)    -80.8693         0.012563   
    128. D(C   4,C   3,O   2,P   1)   -178.3648         0.013407   
    129. D(H  18,C   3,O   2,P   1)     60.7923         0.013407   
    130. D(H  17,C   3,O   2,P   1)    -57.4051         0.013407   
    131. D(C   5,C   4,C   3,O   2)    179.6063         0.012139   
    132. D(H  19,C   4,C   3,H  18)     60.2789         0.012139   
    133. D(H  19,C   4,C   3,H  17)   -177.7936         0.012139   
    134. D(H  19,C   4,C   3,O   2)    -58.8272         0.012139   
    135. D(C   5,C   4,C   3,H  17)     60.6398         0.012139   
    136. D(C   5,C   4,C   3,H  18)    -61.2876         0.012139   
    137. D(C   6,C   5,C   4,H  20)    -58.8973         0.010754   
    138. D(C   6,C   5,C   4,H  19)     58.7249         0.010754   
    139. D(C   6,C   5,C   4,C   3)   -179.9899         0.010754   
    140. D(H  21,C   5,C   4,C   3)     58.0251         0.010754   
    141. D(H  21,C   5,C   4,H  20)    179.1177         0.010754   
    142. D(H  21,C   5,C   4,H  19)    -63.2600         0.010754   
    143. D(H  24,C   6,C   5,H  22)    -61.7778         0.011001   
    144. D(H  24,C   6,C   5,H  21)   -178.1558         0.011001   
    145. D(H  24,C   6,C   5,C   4)     60.0237         0.011001   
    146. D(H  23,C   6,C   5,H  21)    -58.0737         0.011001   
    147. D(H  23,C   6,C   5,C   4)   -179.8942         0.011001   
    148. D(H  23,C   6,C   5,H  22)     58.3043         0.011001   
    149. D(C   8,O   7,P   1,O  12)    176.9722         0.013376   
    150. D(C   8,O   7,P   1,O   2)    -70.8633         0.013376   
    151. D(C   8,O   7,P   1,O   0)     55.7876         0.013376   
    152. D(H  27,C   8,O   7,P   1)    -49.3837         0.013076   
    153. D(H  26,C   8,O   7,P   1)     68.7752         0.013076   
    154. D(C   9,C   8,O   7,P   1)   -170.2476         0.013076   
    155. D(C  10,C   9,C   8,O   7)    -65.4618         0.012205   
    156. D(H  28,C   9,C   8,H  27)    -60.2740         0.012205   
    157. D(H  28,C   9,C   8,H  26)    177.4377         0.012205   
    158. D(H  28,C   9,C   8,O   7)     58.6984         0.012205   
    159. D(C  10,C   9,C   8,H  27)    175.5658         0.012205   
    160. D(C  10,C   9,C   8,H  26)     53.2774         0.012205   
    161. D(H  30,C  10,C   9,H  29)     63.1054         0.010899   
    162. D(H  30,C  10,C   9,H  28)    179.9722         0.010899   
    163. D(H  30,C  10,C   9,C   8)    -56.5425         0.010899   
    164. D(C  11,C  10,C   9,H  29)    -58.8180         0.010899   
    165. D(C  11,C  10,C   9,H  28)     58.0488         0.010899   
    166. D(C  11,C  10,C   9,C   8)   -178.4659         0.010899   
    167. D(H  33,C  11,C  10,H  31)    -57.9933         0.011002   
    168. D(H  33,C  11,C  10,H  30)     58.4710         0.011002   
    169. D(H  33,C  11,C  10,C   9)    179.9672         0.011002   
    170. D(H  32,C  11,C  10,H  31)     62.0607         0.011002   
    171. D(H  32,C  11,C  10,H  30)    178.5250         0.011002   
    172. D(H  32,C  11,C  10,C   9)    -59.9788         0.011002   
    173. D(C  13,O  12,P   1,O   7)     57.4634         0.013369   
    174. D(C  13,O  12,P   1,O   2)    -49.7513         0.013369   
    175. D(C  13,O  12,P   1,O   0)   -176.7553         0.013369   
    176. D(H  36,C  13,O  12,P   1)     51.1715         0.013344   
    177. D(H  35,C  13,O  12,P   1)    -67.0806         0.013344   
    178. D(C  14,C  13,O  12,P   1)    172.1591         0.013344   
    179. D(H  37,C  14,C  13,H  36)     60.7113         0.012130   
    180. D(H  37,C  14,C  13,H  35)   -177.0882         0.012130   
    181. D(H  37,C  14,C  13,O  12)    -58.4270         0.012130   
    182. D(C  15,C  14,C  13,H  36)    -60.8356         0.012130   
    183. D(C  15,C  14,C  13,H  35)     61.3648         0.012130   
    184. D(C  15,C  14,C  13,O  12)   -179.9740         0.012130   
    185. D(C  16,C  15,C  14,H  38)    -58.7212         0.010784   
    186. D(C  16,C  15,C  14,H  37)     58.9205         0.010784   
    187. D(C  16,C  15,C  14,C  13)   -179.9206         0.010784   
    188. D(H  39,C  15,C  14,H  38)     63.2615         0.010784   
    189. D(H  39,C  15,C  14,H  37)   -179.0968         0.010784   
    190. D(H  39,C  15,C  14,C  13)    -57.9380         0.010784   
    191. D(H  42,C  16,C  15,H  40)     61.9728         0.010995   
    192. D(H  42,C  16,C  15,H  39)    178.3104         0.010995   
    193. D(H  42,C  16,C  15,C  14)    -59.8214         0.010995   
    194. D(H  41,C  16,C  15,H  40)    -58.0890         0.010995   
    195. D(H  41,C  16,C  15,H  39)     58.2487         0.010995   
    196. D(H  41,C  16,C  15,C  14)   -179.8831         0.010995   
    -----------------------------------------------------------------

Number of atoms                         .... 44
Number of degrees of freedom            .... 196


         *************************************************************
         *                GEOMETRY OPTIMIZATION CYCLE   1            *
         *************************************************************
---------------------------------
CARTESIAN COORDINATES (ANGSTROEM)
---------------------------------
  O      0.604873    0.457425    3.062224
  P      0.108048    0.294959    1.668884
  O      1.221971    0.445502    0.521961
  C      2.533776   -0.198031    0.709511
  C      3.400650    0.133334   -0.491429
  C      4.796907   -0.493590   -0.372451
  C      5.689139   -0.171081   -1.575168
  O     -1.012443    1.317459    1.169769
  C     -0.752784    2.769323    1.241032
  C     -2.043479    3.508125    0.941932
  C     -2.568001    3.320932   -0.486550
  C     -3.850940    4.115482   -0.749854
  O     -0.601806   -1.125137    1.496295
  C     -1.121243   -1.569474    0.190603
  C     -1.550578   -3.019428    0.321541
  C     -2.107178   -3.567571   -0.999520
  C     -2.548439   -5.030359   -0.888249
  H      2.974987    0.183236    1.641690
  H      2.379850   -1.283766    0.803329
  H      2.906557   -0.229511   -1.407454
  H      3.490152    1.228478   -0.580160
  H      4.697829   -1.586940   -0.268222
  H      5.278947   -0.135705    0.552518
  H      6.682127   -0.631548   -1.468788
  H      5.831309    0.915215   -1.682354
  H      5.243217   -0.544163   -2.509932
  H      0.028472    3.009221    0.504485
  H     -0.385307    3.002911    2.250116
  H     -2.810158    3.204457    1.674258
  H     -1.842980    4.577780    1.125248
  H     -1.785232    3.631144   -1.199388
  H     -2.752678    2.251191   -0.673040
  H     -4.656378    3.804484   -0.066633
  H     -4.208519    3.967091   -1.779214
  H     -3.686604    5.194210   -0.602583
  H     -1.968571   -0.922354   -0.077969
  H     -0.325613   -1.452222   -0.559285
  H     -0.686390   -3.624169    0.641720
  H     -2.316101   -3.100036    1.110623
  H     -2.960765   -2.947996   -1.321537
  H     -1.339757   -3.472017   -1.785666
  H     -2.941090   -5.400867   -1.846351
  H     -1.706417   -5.676725   -0.596791
  H     -3.339361   -5.149274   -0.131856

----------------------------
CARTESIAN COORDINATES (A.U.)
----------------------------
  NO LB      ZA    FRAG     MASS         X           Y           Z
   0 O     8.0000    0    15.999    1.143044    0.864408    5.786765
   1 P    15.0000    0    30.974    0.204181    0.557392    3.153733
   2 O     8.0000    0    15.999    2.309190    0.841877    0.986362
   3 C     6.0000    0    12.011    4.788142   -0.374223    1.340781
   4 C     6.0000    0    12.011    6.426297    0.251965   -0.928667
   5 C     6.0000    0    12.011    9.064841   -0.932750   -0.703831
   6 C     6.0000    0    12.011   10.750915   -0.323297   -2.976637
   7 O     8.0000    0    15.999   -1.913241    2.489636    2.210543
   8 C     6.0000    0    12.011   -1.422555    5.233263    2.345211
   9 C     6.0000    0    12.011   -3.861615    6.629396    1.779993
  10 C     6.0000    0    12.011   -4.852819    6.275652   -0.919445
  11 C     6.0000    0    12.011   -7.277223    7.777134   -1.417019
  12 O     8.0000    0    15.999   -1.137248   -2.126201    2.827588
  13 C     6.0000    0    12.011   -2.118842   -2.965876    0.360188
  14 C     6.0000    0    12.011   -2.930167   -5.705892    0.607624
  15 C     6.0000    0    12.011   -3.981989   -6.741732   -1.888818
  16 C     6.0000    0    12.011   -4.815852   -9.506002   -1.678546
  17 H     1.0000    0     1.008    5.621911    0.346265    3.102345
  18 H     1.0000    0     1.008    4.497264   -2.425966    1.518071
  19 H     1.0000    0     1.008    5.492596   -0.433712   -2.659702
  20 H     1.0000    0     1.008    6.595432    2.321488   -1.096344
  21 H     1.0000    0     1.008    8.877611   -2.998881   -0.506865
  22 H     1.0000    0     1.008    9.975764   -0.256445    1.044107
  23 H     1.0000    0     1.008   12.627391   -1.193452   -2.775607
  24 H     1.0000    0     1.008   11.019577    1.729506   -3.179189
  25 H     1.0000    0     1.008    9.908245   -1.028318   -4.743083
  26 H     1.0000    0     1.008    0.053803    5.686604    0.953339
  27 H     1.0000    0     1.008   -0.728125    5.674680    4.252102
  28 H     1.0000    0     1.008   -5.310430    6.055546    3.163889
  29 H     1.0000    0     1.008   -3.482728    8.650750    2.126410
  30 H     1.0000    0     1.008   -3.373599    6.861868   -2.266514
  31 H     1.0000    0     1.008   -5.201807    4.254135   -1.271862
  32 H     1.0000    0     1.008   -8.799279    7.189433   -0.125917
  33 H     1.0000    0     1.008   -7.952948    7.496715   -3.362227
  34 H     1.0000    0     1.008   -6.966672    9.815634   -1.138716
  35 H     1.0000    0     1.008   -3.720061   -1.742996   -0.147341
  36 H     1.0000    0     1.008   -0.615320   -2.744302   -1.056895
  37 H     1.0000    0     1.008   -1.297089   -6.848687    1.212674
  38 H     1.0000    0     1.008   -4.376796   -5.858218    2.098774
  39 H     1.0000    0     1.008   -5.595034   -5.570905   -2.497343
  40 H     1.0000    0     1.008   -2.531774   -6.561161   -3.374420
  41 H     1.0000    0     1.008   -5.557855  -10.206160   -3.489098
  42 H     1.0000    0     1.008   -3.224660  -10.727455   -1.127772
  43 H     1.0000    0     1.008   -6.310478   -9.730718   -0.249171

--------------------------------
INTERNAL COORDINATES (ANGSTROEM)
--------------------------------
 O      0   0   0     0.000000000000     0.00000000     0.00000000
 P      1   0   0     1.488162718095     0.00000000     0.00000000
 O      2   1   0     1.605901263354   115.26962401     0.00000000
 C      3   2   1     1.473140152353   119.06485323    43.20242032
 C      4   3   2     1.517738717451   108.20965950   181.63524851
 C      5   4   3     1.535162656334   111.65376419   179.60625448
 C      6   5   4     1.531867625010   112.51467177   180.01011227
 O      2   1   3     1.596910090015   117.19261255   240.29942082
 C      8   2   1     1.476622125443   119.41251123    55.78762862
 C      9   8   2     1.516965034346   108.64642810   189.75236775
 C     10   9   8     1.533207096136   114.53944631   294.53819158
 C     11  10   9     1.531852307553   112.54050992   181.53406962
 O      2   1   3     1.596982301585   110.28324099   123.04027938
 C     13   2   1     1.473798316419   121.36603559   183.24471060
 C     14  13   2     1.517840582621   108.13601725   172.15908269
 C     15  14  13     1.534752055228   111.68532042   180.02601226
 C     16  15  14     1.531941045039   112.51797435   180.07935341
 H      4   3   2     1.099541010542   108.28728611   302.59488541
 H      4   3   2     1.100598033521   108.49715417    60.79231202
 H      5   4   3     1.102218174970   109.25027027   301.17278793
 H      5   4   3     1.102372472635   109.08430128    58.12126968
 H      6   5   4     1.102766531791   109.29903695    58.02512743
 H      6   5   4     1.102729073881   109.27198616   302.00390284
 H      7   6   5     1.099714358584   111.21191612   180.10579645
 H      7   6   5     1.100791054771   111.06548796    60.02369764
 H      7   6   5     1.100826185747   111.06352461   300.18656314
 H      9   8   2     1.100186977949   107.87597137    68.77517182
 H      9   8   2     1.099023018481   108.18504203   310.61634254
 H     10   9   8     1.102866366500   109.05366276    58.69842678
 H     10   9   8     1.103614577566   106.54168122   173.20284965
 H     11  10   9     1.103221380029   108.96196109   303.45750819
 H     11  10   9     1.101466888376   109.49238452    59.47591433
 H     12  11  10     1.101018490692   111.06938042   300.02120540
 H     12  11  10     1.099756030146   111.29732683   179.96720838
 H     12  11  10     1.101067499100   111.11075451    59.80403679
 H     14  13   2     1.099482415637   108.09417351   292.91938138
 H     14  13   2     1.099593732221   108.48235545    51.17153114
 H     15  14  13     1.102291746823   109.10995449   301.57299924
 H     15  14  13     1.102349620291   109.14948085    58.46923490
 H     16  15  14     1.102804773849   109.35342395   302.06203878
 H     16  15  14     1.102765402441   109.28699213    58.12437472
 H     17  16  15     1.099732229422   111.17771858   180.11688100
 H     17  16  15     1.100789219227   111.07437836   300.17860398
 H     17  16  15     1.100830919301   111.10050566    60.05717672

---------------------------
INTERNAL COORDINATES (A.U.)
---------------------------
 O      0   0   0     0.000000000000     0.00000000     0.00000000
 P      1   0   0     2.812219979911     0.00000000     0.00000000
 O      2   1   0     3.034713585858   115.26962401     0.00000000
 C      3   2   1     2.783831444831   119.06485323    43.20242032
 C      4   3   2     2.868110518831   108.20965950   181.63524851
 C      5   4   3     2.901036991495   111.65376419   179.60625448
 C      6   5   4     2.894810284689   112.51467177   180.01011227
 O      2   1   3     3.017722730624   117.19261255   240.29942082
 C      8   2   1     2.790411420377   119.41251123    55.78762862
 C      9   8   2     2.866648469649   108.64642810   189.75236775
 C     10   9   8     2.897341518281   114.53944631   294.53819158
 C     11  10   9     2.894781338891   112.54050992   181.53406962
 O      2   1   3     3.017859190715   110.28324099   123.04027938
 C     13   2   1     2.785075194666   121.36603559   183.24471060
 C     14  13   2     2.868303016105   108.13601725   172.15908269
 C     15  14  13     2.900261067854   111.68532042   180.02601226
 C     16  15  14     2.894949028437   112.51797435   180.07935341
 H      4   3   2     2.077831382939   108.28728611   302.59488541
 H      4   3   2     2.079828866886   108.49715417    60.79231202
 H      5   4   3     2.082890490523   109.25027027   301.17278793
 H      5   4   3     2.083182070854   109.08430128    58.12126968
 H      6   5   4     2.083926734739   109.29903695    58.02512743
 H      6   5   4     2.083855949547   109.27198616   302.00390284
 H      7   6   5     2.078158963264   111.21191612   180.10579645
 H      7   6   5     2.080193624187   111.06548796    60.02369764
 H      7   6   5     2.080260012112   111.06352461   300.18656314
 H      9   8   2     2.079052084430   107.87597137    68.77517182
 H      9   8   2     2.076852519804   108.18504203   310.61634254
 H     10   9   8     2.084115394998   109.05366276    58.69842678
 H     10   9   8     2.085529309003   106.54168122   173.20284965
 H     11  10   9     2.084786273341   108.96196109   303.45750819
 H     11  10   9     2.081470764613   109.49238452    59.47591433
 H     12  11  10     2.080623415791   111.06938042   300.02120540
 H     12  11  10     2.078237711105   111.29732683   179.96720838
 H     12  11  10     2.080716028260   111.11075451    59.80403679
 H     14  13   2     2.077720654617   108.09417351   292.91938138
 H     14  13   2     2.077931012474   108.48235545    51.17153114
 H     15  14  13     2.083029521178   109.10995449   301.57299924
 H     15  14  13     2.083138886182   109.14948085    58.46923490
 H     16  15  14     2.083999001756   109.35342395   302.06203878
 H     16  15  14     2.083924600577   109.28699213    58.12437472
 H     17  16  15     2.078192734254   111.17771858   180.11688100
 H     17  16  15     2.080190155512   111.07437836   300.17860398
 H     17  16  15     2.080268957231   111.10050566    60.05717672

---------------------
BASIS SET INFORMATION
---------------------
There are 4 groups of distinct atoms

 Group   1 Type O   : 11s6p2d1f contracted to 5s3p2d1f pattern {62111/411/11/1}
 Group   2 Type P   : 14s9p3d1f contracted to 5s5p2d1f pattern {73211/51111/21/1}
 Group   3 Type C   : 11s6p2d1f contracted to 5s3p2d1f pattern {62111/411/11/1}
 Group   4 Type H   : 5s1p contracted to 3s1p pattern {311/1}

Atom   0O    basis set group =>   1
Atom   1P    basis set group =>   2
Atom   2O    basis set group =>   1
Atom   3C    basis set group =>   3
Atom   4C    basis set group =>   3
Atom   5C    basis set group =>   3
Atom   6C    basis set group =>   3
Atom   7O    basis set group =>   1
Atom   8C    basis set group =>   3
Atom   9C    basis set group =>   3
Atom  10C    basis set group =>   3
Atom  11C    basis set group =>   3
Atom  12O    basis set group =>   1
Atom  13C    basis set group =>   3
Atom  14C    basis set group =>   3
Atom  15C    basis set group =>   3
Atom  16C    basis set group =>   3
Atom  17H    basis set group =>   4
Atom  18H    basis set group =>   4
Atom  19H    basis set group =>   4
Atom  20H    basis set group =>   4
Atom  21H    basis set group =>   4
Atom  22H    basis set group =>   4
Atom  23H    basis set group =>   4
Atom  24H    basis set group =>   4
Atom  25H    basis set group =>   4
Atom  26H    basis set group =>   4
Atom  27H    basis set group =>   4
Atom  28H    basis set group =>   4
Atom  29H    basis set group =>   4
Atom  30H    basis set group =>   4
Atom  31H    basis set group =>   4
Atom  32H    basis set group =>   4
Atom  33H    basis set group =>   4
Atom  34H    basis set group =>   4
Atom  35H    basis set group =>   4
Atom  36H    basis set group =>   4
Atom  37H    basis set group =>   4
Atom  38H    basis set group =>   4
Atom  39H    basis set group =>   4
Atom  40H    basis set group =>   4
Atom  41H    basis set group =>   4
Atom  42H    basis set group =>   4
Atom  43H    basis set group =>   4
---------------------------------
AUXILIARY/J BASIS SET INFORMATION
---------------------------------
There are 4 groups of distinct atoms

 Group   1 Type O   : 12s5p4d2f1g contracted to 6s4p3d1f1g pattern {711111/2111/211/2/1}
 Group   2 Type P   : 14s5p5d2f1g contracted to 8s4p3d1f1g pattern {71111111/2111/311/2/1}
 Group   3 Type C   : 12s5p4d2f1g contracted to 6s4p3d1f1g pattern {711111/2111/211/2/1}
 Group   4 Type H   : 5s2p1d contracted to 3s1p1d pattern {311/2/1}

Atom   0O    basis set group =>   1
Atom   1P    basis set group =>   2
Atom   2O    basis set group =>   1
Atom   3C    basis set group =>   3
Atom   4C    basis set group =>   3
Atom   5C    basis set group =>   3
Atom   6C    basis set group =>   3
Atom   7O    basis set group =>   1
Atom   8C    basis set group =>   3
Atom   9C    basis set group =>   3
Atom  10C    basis set group =>   3
Atom  11C    basis set group =>   3
Atom  12O    basis set group =>   1
Atom  13C    basis set group =>   3
Atom  14C    basis set group =>   3
Atom  15C    basis set group =>   3
Atom  16C    basis set group =>   3
Atom  17H    basis set group =>   4
Atom  18H    basis set group =>   4
Atom  19H    basis set group =>   4
Atom  20H    basis set group =>   4
Atom  21H    basis set group =>   4
Atom  22H    basis set group =>   4
Atom  23H    basis set group =>   4
Atom  24H    basis set group =>   4
Atom  25H    basis set group =>   4
Atom  26H    basis set group =>   4
Atom  27H    basis set group =>   4
Atom  28H    basis set group =>   4
Atom  29H    basis set group =>   4
Atom  30H    basis set group =>   4
Atom  31H    basis set group =>   4
Atom  32H    basis set group =>   4
Atom  33H    basis set group =>   4
Atom  34H    basis set group =>   4
Atom  35H    basis set group =>   4
Atom  36H    basis set group =>   4
Atom  37H    basis set group =>   4
Atom  38H    basis set group =>   4
Atom  39H    basis set group =>   4
Atom  40H    basis set group =>   4
Atom  41H    basis set group =>   4
Atom  42H    basis set group =>   4
Atom  43H    basis set group =>   4


           ************************************************************
           *        Program running with 16 parallel MPI-processes    *
           *              working on a common directory               *
           ************************************************************
------------------------------------------------------------------------------
                             ORCA STARTUP CALCULATIONS
                           -- RI-GTO INTEGRALS CHOSEN --
------------------------------------------------------------------------------
------------------------------------------------------------------------------
                   ___                                                        
                  /   \      - P O W E R E D   B Y -                         
                 /     \                                                     
                 |  |  |   _    _      __       _____    __    __             
                 |  |  |  | |  | |    /  \     |  _  \  |  |  /  |          
                  \  \/   | |  | |   /    \    | | | |  |  | /  /          
                 / \  \   | |__| |  /  /\  \   | |_| |  |  |/  /          
                |  |  |   |  __  | /  /__\  \  |    /   |      \           
                |  |  |   | |  | | |   __   |  |    \   |  |\   \          
                \     /   | |  | | |  |  |  |  | |\  \  |  | \   \       
                 \___/    |_|  |_| |__|  |__|  |_| \__\ |__|  \__/        
                                                                              
                      - O R C A' S   B I G   F R I E N D -                    
                                      &                                       
                       - I N T E G R A L  F E E D E R -                       
                                                                              
 v1 FN, 2020, v2 2021, v3 2022-2024                                           
------------------------------------------------------------------------------


----------------------
SHARK INTEGRAL PACKAGE
----------------------

Number of atoms                             ...     44
Number of basis functions                   ...    695
Number of shells                            ...    297
Maximum angular momentum                    ...      3
Integral batch strategy                     ... SHARK/LIBINT Hybrid
RI-J (if used) integral strategy            ... SPLIT-RIJ (Revised 2003 algorithm where possible)
Printlevel                                  ...      1
Contraction scheme used                     ... SEGMENTED contraction
Prescreening option                         ... SCHWARTZ
   Thresh                                   ... 2.500e-11
   Tcut                                     ... 2.500e-12
   Tpresel                                  ... 2.500e-12 
Coulomb Range Separation                    ... NOT USED
Exchange Range Separation                   ... NOT USED
Multipole approximations                    ... NOT USED
Finite Nucleus Model                        ... NOT USED
CABS basis                                  ... NOT available
Auxiliary Coulomb fitting basis             ... AVAILABLE
   # of basis functions in Aux-J            ...   1132
   # of shells in Aux-J                     ...    392
   Maximum angular momentum in Aux-J        ...      4
Auxiliary J/K fitting basis                 ... NOT available
Auxiliary Correlation fitting basis         ... NOT available
Auxiliary 'external' fitting basis          ... NOT available

Checking pre-screening integrals            ... done (  0.0 sec) Dimension = 297
Check shell pair data                       ... done (  0.0 sec)
Shell pair information
Shell pair cut-off parameter TPreSel        ...   2.5e-12
Total number of shell pairs                 ...     44253
Shell pairs after pre-screening             ...     28115
Total number of primitive shell pairs       ...    130264
Primitive shell pairs kept                  ...     55761
          la=0 lb=0:   8820 shell pairs
          la=1 lb=0:   8647 shell pairs
          la=1 lb=1:   2170 shell pairs
          la=2 lb=0:   3501 shell pairs
          la=2 lb=1:   1728 shell pairs
          la=2 lb=2:    377 shell pairs
          la=3 lb=0:   1648 shell pairs
          la=3 lb=1:    814 shell pairs
          la=3 lb=2:    330 shell pairs
          la=3 lb=3:     80 shell pairs

Calculating one electron integrals          ... done (  0.0 sec)
Calculating RI/J V-Matrix + Cholesky decomp.... done (  0.1 sec)
Calculating Nuclear repulsion               ... done (  0.0 sec) ENN=   1463.236446237135 Eh

Diagonalization of the overlap matrix:
Smallest eigenvalue                        ... 1.475e-04
Time for diagonalization                   ...    0.068 sec
Threshold for overlap eigenvalues          ... 1.000e-07
Number of eigenvalues below threshold      ... 0
Time for construction of square roots      ...    0.038 sec
Total time needed                          ...    0.111 sec

-------------------
DFT GRID GENERATION
-------------------

General Integration Accuracy     IntAcc      ... 4.388
Radial Grid Type                 RadialGrid  ... OptM3 with GC (2021)
Angular Grid (max. ang.)         AngularGrid ... 4 (Lebedev-302)
Angular grid pruning method      GridPruning ... 4 (adaptive)
Weight generation scheme         WeightScheme... mBecke (2022)
Basis function cutoff            BFCut       ... 1.0000e-11
Integration weight cutoff        WCut        ... 1.0000e-14
Partially contracted basis set               ... off
Rotationally invariant grid construction     ... off
Angular grids for H and He will be reduced by one unit

Total number of grid points                  ...   189611
Total number of batches                      ...     2986
Average number of points per batch           ...       63
Average number of grid points per atom       ...     4309
Initializing property integral containers    ... done (  0.0 sec)

SHARK setup successfully completed in   1.7 seconds

Maximum memory used throughout the entire STARTUP-calculation: 69.1 MB


           ************************************************************
           *        Program running with 16 parallel MPI-processes    *
           *              working on a common directory               *
           ************************************************************
-------------------------------------------------------------------------------
                                 ORCA GUESS
                   Start orbitals & Density for SCF / CASSCF
-------------------------------------------------------------------------------

------------
SCF SETTINGS
------------
Hamiltonian:
 Density Functional     Method          .... DFT(GTOs)
 Exchange Functional    Exchange        .... B88
   X-Alpha parameter    XAlpha          ....  0.666667
   Becke's b parameter  XBeta           ....  0.004200
 Correlation Functional Correlation     .... P86
 LDA part of GGA corr.  LDAOpt          .... PW91-LDA
 Gradients option       PostSCFGGA      .... off
   NL short-range parameter             ....  4.400000
 RI-approximation to the Coulomb term is turned on
   Number of AuxJ basis functions       .... 1132


General Settings:
 Integral files         IntName         .... geo_opt_tzvp
 Hartree-Fock type      HFTyp           .... RHF
 Total Charge           Charge          ....    0
 Multiplicity           Mult            ....    1
 Number of Electrons    NEL             ....  146
 Basis Dimension        Dim             ....  695
 Nuclear Repulsion      ENuc            ....   1463.2364462371 Eh

Convergence Acceleration:
 AO-DIIS                CNVDIIS         .... on
   Start iteration      DIISMaxIt       ....    12
   Startup error        DIISStart       ....  0.200000
   # of expansion vecs  DIISMaxEq       ....     5
   Bias factor          DIISBfac        ....   1.050
   Max. coefficient     DIISMaxC        ....  10.000
 MO-DIIS                CNVKDIIS        .... off
 Trust-Rad. Augm. Hess. CNVTRAH         .... auto
   Auto Start mean grad. ratio tolernc. ....  1.125000
   Auto Start start iteration           ....    50
   Auto Start num. interpolation iter.  ....    10
   Max. Number of Micro iterations      ....    24
   Max. Number of Macro iterations      .... Maxiter - #DIIS iter
   Number of Davidson start vectors     ....     2
   Converg. threshold    (grad. norm)   ....   1.000e-05
   Grad. Scal. Fac. for Micro threshold ....   0.100
   Minimum threshold for Micro iter.    ....   1.000e-02
   NR start threshold (gradient norm)   ....   1.000e-04
   Initial trust radius                 ....   0.400
   Minimum AH scaling param. (alpha)    ....   1.000
   Maximum AH scaling param. (alpha)    .... 1000.000
   Quad. conv. algorithm                .... NR
   White noise on init. David. guess    .... on
   Maximum white noise                  ....   0.010
   Pseudo random numbers                .... off
   Inactive MOs                         .... canonical
   Orbital update algorithm             .... Taylor
   Preconditioner                       .... Diag
   Full preconditioner red. dimension   ....   250
 SOSCF                  CNVSOSCF        .... on
   Start iteration      SOSCFMaxIt      ....   150
   Startup grad/error   SOSCFStart      ....  0.003300
   Hessian update       SOSCFHessUp     .... L-BFGS
 Level Shifting         CNVShift        .... on
   Level shift para.    LevelShift      ....    0.2500
   Turn off err/grad.   ShiftErr        ....    0.0010
 Zerner damping         CNVZerner       .... off
 Static damping         CNVDamp         .... on
   Fraction old density DampFac         ....    0.7000
   Max. Damping (<1)    DampMax         ....    0.9800
   Min. Damping (>=0)   DampMin         ....    0.0000
   Turn off err/grad.   DampErr         ....    0.1000

SCF Procedure:
 Maximum # iterations   MaxIter         ....   125
 SCF integral mode      SCFMode         .... Direct
   Integral package                     .... SHARK and LIBINT hybrid scheme
 Reset frequency        DirectResetFreq ....    20
 Integral Threshold     Thresh          ....  2.500e-11 Eh
 Primitive CutOff       TCut            ....  2.500e-12 Eh

Convergence Tolerance:
 Convergence Check Mode ConvCheckMode   .... Total+1el-Energy
 Convergence forced     ConvForced      .... 0
 Energy Change          TolE            ....  1.000e-08 Eh
 1-El. energy change                    ....  1.000e-05 Eh
 Orbital Gradient       TolG            ....  1.000e-05
 Orbital Rotation angle TolX            ....  1.000e-05
 DIIS Error             TolErr          ....  5.000e-07

------------------------------
INITIAL GUESS: MODEL POTENTIAL
------------------------------
Loading Hartree-Fock densities                     ... done
Calculating cut-offs                               ... done
Initializing the effective Hamiltonian             ... done
Setting up the integral package (SHARK)            ... done
Starting the Coulomb interaction                   ... done (   0.2 sec)
Making the grid                                    ... done (   0.3 sec)
Mapping shells                                     ... done
Starting the XC term evaluation                    ... done (   0.2 sec)
  promolecular density results
     # of electrons  =    145.997143617
     EX              =   -125.213511810
     EC              =     -5.399187447
     EX+EC           =   -130.612699257
Transforming the Hamiltonian                       ... done (   0.0 sec)
Diagonalizing the Hamiltonian                      ... done (   0.1 sec)
Back transforming the eigenvectors                 ... done (   0.0 sec)
Now organizing SCF variables                       ... done
                      ------------------
                      INITIAL GUESS DONE (   0.8 sec)
                      ------------------
             **** ENERGY FILE WAS UPDATED (geo_opt_tzvp.en.tmp) ****
Finished Guess after   1.8 sec
Maximum memory used throughout the entire GUESS-calculation: 47.9 MB


           ************************************************************
           *        Program running with 16 parallel MPI-processes    *
           *              working on a common directory               *
           ************************************************************

-------------------------------------------------------------------------------------------
                                      ORCA LEAN-SCF
                              memory conserving SCF solver
-------------------------------------------------------------------------------------------

--------------------
CPCM SOLVATION MODEL
--------------------
CPCM parameters:
  Epsilon                                         ...     INFINITY
  Refrac                                          ...       1.3300
  Rsolv                                           ...       1.3000
  Surface type                                    ... GAUSSIAN VDW
  Discretization scheme                           ... Constant charge density
    Threshold for H atoms                         ...       5.0000 (charges/Ang^2)
    Threshold for non-H atoms                     ...       5.0000 (charges/Ang^2)
  Epsilon function type                           ...         CPCM
Solvent:                                          ... CONDUCTOR
Radii:
  Scheme                                          ... Element-dependent radii
  Radius for O  used is    3.2503 Bohr (=   1.7200 Ang.)
  Radius for P  used is    3.9798 Bohr (=   2.1060 Ang.)
  Radius for C  used is    3.7795 Bohr (=   2.0000 Ang.)
  Radius for H  used is    2.4566 Bohr (=   1.3000 Ang.)
Calculating surface                               ...        done! (  0.0s)
Cavity surface points                             ...         2578
Cavity Volume                                     ...    2228.7511
Cavity Surface-area                               ...    1297.7813
Calculating surface distance matrix               ...        done! (  0.0s)
Performing Cholesky decomposition & store         ...        done! (  0.1s)
Overall time for CPCM initialization              ...                 0.1s

----------------------------------------D-I-I-S--------------------------------------------
Iteration    Energy (Eh)           Delta-E    RMSDP     MaxDP     DIISErr   Damp  Time(sec)
-------------------------------------------------------------------------------------------
               ***  Starting incremental Fock matrix formation  ***
    1    -1115.6644296488659620     0.00e+00  1.04e-03  1.33e-01  3.59e-01  0.700   1.8
    2    -1115.9739685953866228    -3.10e-01  6.92e-04  5.22e-02  1.05e-01  0.700   1.9
                               ***Turning on AO-DIIS***
    3    -1116.0700470148397017    -9.61e-02  2.81e-04  1.40e-02  2.31e-02  0.700   1.7
    4    -1116.1317079879643188    -6.17e-02  4.13e-04  1.89e-02  1.17e-02  0.000   1.7
    5    -1116.2754687652638950    -1.44e-01  1.47e-04  7.59e-03  1.66e-02  0.000   1.7
                              *** Initializing SOSCF ***
---------------------------------------S-O-S-C-F--------------------------------------
Iteration    Energy (Eh)           Delta-E    RMSDP     MaxDP     MaxGrad    Time(sec)
--------------------------------------------------------------------------------------
    6    -1116.2772502465493289    -1.78e-03  6.14e-05  2.91e-03  3.11e-03     1.9
               *** Restarting incremental Fock matrix formation ***
    7    -1116.2774008880267047    -1.51e-04  5.66e-05  3.23e-03  5.15e-04     1.7
    8    -1116.2773417200544372     5.92e-05  2.45e-05  2.15e-03  1.31e-03     1.5
    9    -1116.2774229124636349    -8.12e-05  1.05e-05  8.73e-04  7.31e-05     1.5
   10    -1116.2774214602516167     1.45e-06  5.12e-06  3.75e-04  9.74e-05     1.5
   11    -1116.2774245486991731    -3.09e-06  1.48e-06  1.66e-04  1.19e-05     1.5
   12    -1116.2774245172770406     3.14e-08  8.52e-07  8.03e-05  2.26e-05     1.4
   13    -1116.2774245729276572    -5.57e-08  2.43e-07  5.01e-05  4.07e-06     1.4
   14    -1116.2774245940133824    -2.11e-08  1.59e-07  3.65e-05  4.97e-06     1.4
   15    -1116.2774245871871699     6.83e-09  8.90e-08  5.31e-06  7.38e-07     1.4
                 **** Energy Check signals convergence ****

               *****************************************************
               *                     SUCCESS                       *
               *           SCF CONVERGED AFTER  15 CYCLES          *
               *****************************************************

             **** ENERGY FILE WAS UPDATED (geo_opt_tzvp.en.tmp) ****

----------------
TOTAL SCF ENERGY
----------------

Total Energy       :      -1116.27742458718717 Eh          -30375.45298 eV

Components:
Nuclear Repulsion  :       1463.23644623713494 Eh           39816.68794 eV
Electronic Energy  :      -2579.48996512761732 Eh          -70191.49042 eV
One Electron Energy:      -4434.68759399409555 Eh         -120673.98438 eV
Two Electron Energy:       1855.19762886647823 Eh           50482.49396 eV
CPCM Dielectric    :         -0.02390569670472 Eh              -0.65051 eV

Virial components:
Potential Energy   :      -2227.83140319235372 Eh          -60622.37446 eV
Kinetic Energy     :       1111.55397860516678 Eh           30246.92148 eV
Virial Ratio       :          2.00424940765175

DFT components:
N(Alpha)           :       73.000137696825 electrons
N(Beta)            :       73.000137696825 electrons
N(Total)           :      146.000275393651 electrons
E(X)               :     -127.752594504794 Eh       
E(C)               :       -5.375541362139 Eh       
E(XC)              :     -133.128135866933 Eh       

CPCM Solvation Model Properties:
Surface-charge          :         -0.05010094557794
Corrected charge        :         -0.00000000000000
Outlying charge corr.   :          0.00012906663642 Eh               0.00351 eV
Free-energy (cav+disp)  :  This term is not implemented in the current solvation scheme

---------------
SCF CONVERGENCE
---------------

  Last Energy change         ...   -6.8262e-09  Tolerance :   1.0000e-08
  Last MAX-Density change    ...    5.3082e-06  Tolerance :   1.0000e-07
  Last RMS-Density change    ...    8.8984e-08  Tolerance :   5.0000e-09
  Last DIIS Error            ...    3.1088e-03  Tolerance :   5.0000e-07
  Last Orbital Gradient      ...    7.3832e-07  Tolerance :   1.0000e-05
  Last Orbital Rotation      ...    7.3329e-07  Tolerance :   1.0000e-05


----------------
ORBITAL ENERGIES
----------------

  NO   OCC          E(Eh)            E(eV) 
   0   2.0000     -76.468965     -2080.8263 
   1   2.0000     -18.804602      -511.6992 
   2   2.0000     -18.804335      -511.6920 
   3   2.0000     -18.803380      -511.6660 
   4   2.0000     -18.739729      -509.9340 
   5   2.0000      -9.955579      -270.9051 
   6   2.0000      -9.954081      -270.8643 
   7   2.0000      -9.953975      -270.8614 
   8   2.0000      -9.895640      -269.2741 
   9   2.0000      -9.894706      -269.2486 
  10   2.0000      -9.894650      -269.2471 
  11   2.0000      -9.893362      -269.2121 
  12   2.0000      -9.893319      -269.2109 
  13   2.0000      -9.890326      -269.1294 
  14   2.0000      -9.882024      -268.9036 
  15   2.0000      -9.882014      -268.9033 
  16   2.0000      -9.881289      -268.8835 
  17   2.0000      -6.411049      -174.4535 
  18   2.0000      -4.628557      -125.9494 
  19   2.0000      -4.628057      -125.9358 
  20   2.0000      -4.625721      -125.8723 
  21   2.0000      -1.008879       -27.4530 
  22   2.0000      -0.949284       -25.8313 
  23   2.0000      -0.948201       -25.8019 
  24   2.0000      -0.885899       -24.1065 
  25   2.0000      -0.731699       -19.9105 
  26   2.0000      -0.726800       -19.7772 
  27   2.0000      -0.725105       -19.7311 
  28   2.0000      -0.671825       -18.2813 
  29   2.0000      -0.660009       -17.9598 
  30   2.0000      -0.658630       -17.9222 
  31   2.0000      -0.590914       -16.0796 
  32   2.0000      -0.576960       -15.6999 
  33   2.0000      -0.573767       -15.6130 
  34   2.0000      -0.531989       -14.4762 
  35   2.0000      -0.525640       -14.3034 
  36   2.0000      -0.524789       -14.2802 
  37   2.0000      -0.512698       -13.9512 
  38   2.0000      -0.476837       -12.9754 
  39   2.0000      -0.473285       -12.8787 
  40   2.0000      -0.443838       -12.0774 
  41   2.0000      -0.437082       -11.8936 
  42   2.0000      -0.431252       -11.7350 
  43   2.0000      -0.413158       -11.2426 
  44   2.0000      -0.406792       -11.0694 
  45   2.0000      -0.400150       -10.8886 
  46   2.0000      -0.394584       -10.7372 
  47   2.0000      -0.393080       -10.6963 
  48   2.0000      -0.387166       -10.5353 
  49   2.0000      -0.378810       -10.3080 
  50   2.0000      -0.364408        -9.9160 
  51   2.0000      -0.359615        -9.7856 
  52   2.0000      -0.352568        -9.5939 
  53   2.0000      -0.341803        -9.3009 
  54   2.0000      -0.336733        -9.1630 
  55   2.0000      -0.332880        -9.0581 
  56   2.0000      -0.329774        -8.9736 
  57   2.0000      -0.326857        -8.8942 
  58   2.0000      -0.323153        -8.7934 
  59   2.0000      -0.308403        -8.3921 
  60   2.0000      -0.301685        -8.2093 
  61   2.0000      -0.298998        -8.1361 
  62   2.0000      -0.298517        -8.1231 
  63   2.0000      -0.295327        -8.0363 
  64   2.0000      -0.290944        -7.9170 
  65   2.0000      -0.288332        -7.8459 
  66   2.0000      -0.286760        -7.8031 
  67   2.0000      -0.286203        -7.7880 
  68   2.0000      -0.282864        -7.6971 
  69   2.0000      -0.278535        -7.5793 
  70   2.0000      -0.270133        -7.3507 
  71   2.0000      -0.266139        -7.2420 
  72   2.0000      -0.258245        -7.0272 
  73   0.0000       0.002220         0.0604 
  74   0.0000       0.021293         0.5794 
  75   0.0000       0.028075         0.7640 
  76   0.0000       0.032138         0.8745 
  77   0.0000       0.038766         1.0549 
  78   0.0000       0.039610         1.0778 
  79   0.0000       0.045128         1.2280 
  80   0.0000       0.052512         1.4289 
  81   0.0000       0.059248         1.6122 
  82   0.0000       0.059772         1.6265 
  83   0.0000       0.061498         1.6734 
*Only the first 10 virtual orbitals were printed.

                    ********************************
                    * MULLIKEN POPULATION ANALYSIS *
                    ********************************

-----------------------
MULLIKEN ATOMIC CHARGES
-----------------------
   0 O :   -0.593891
   1 P :    0.787612
   2 O :   -0.308204
   3 C :   -0.061695
   4 C :   -0.204276
   5 C :   -0.204921
   6 C :   -0.383172
   7 O :   -0.303014
   8 C :   -0.076214
   9 C :   -0.192149
  10 C :   -0.210512
  11 C :   -0.382551
  12 O :   -0.310578
  13 C :   -0.078143
  14 C :   -0.199193
  15 C :   -0.205203
  16 C :   -0.383495
  17 H :    0.130039
  18 H :    0.136398
  19 H :    0.116449
  20 H :    0.114116
  21 H :    0.110763
  22 H :    0.110894
  23 H :    0.131395
  24 H :    0.123314
  25 H :    0.123319
  26 H :    0.137092
  27 H :    0.138437
  28 H :    0.113307
  29 H :    0.118748
  30 H :    0.106443
  31 H :    0.116089
  32 H :    0.122622
  33 H :    0.130977
  34 H :    0.122413
  35 H :    0.140480
  36 H :    0.138155
  37 H :    0.115115
  38 H :    0.113062
  39 H :    0.110437
  40 H :    0.111201
  41 H :    0.131483
  42 H :    0.123397
  43 H :    0.123454
Sum of atomic charges:    0.0000000

--------------------------------
MULLIKEN REDUCED ORBITAL CHARGES
--------------------------------
  0 O s       :     3.821821  s :     3.821821
      pz      :     1.442351  p :     4.747746
      px      :     1.645087
      py      :     1.660309
      dz2     :     0.007813  d :     0.023115
      dxz     :     0.006741
      dyz     :     0.006472
      dx2y2   :     0.001111
      dxy     :     0.000978
      f0      :     0.000377  f :     0.001209
      f+1     :     0.000322
      f-1     :     0.000279
      f+2     :     0.000109
      f-2     :     0.000106
      f+3     :     0.000007
      f-3     :     0.000008

  1 P s       :     5.105411  s :     5.105411
      pz      :     2.635956  p :     7.985459
      px      :     2.672653
      py      :     2.676850
      dz2     :     0.209163  d :     0.978838
      dxz     :     0.220891
      dyz     :     0.190785
      dx2y2   :     0.159490
      dxy     :     0.198510
      f0      :     0.022899  f :     0.142680
      f+1     :     0.023110
      f-1     :     0.022462
      f+2     :     0.015467
      f-2     :     0.024381
      f+3     :     0.012492
      f-3     :     0.021869

  2 O s       :     3.756909  s :     3.756909
      pz      :     1.569666  p :     4.519223
      px      :     1.274974
      py      :     1.674583
      dz2     :     0.005891  d :     0.030575
      dxz     :     0.009426
      dyz     :     0.004042
      dx2y2   :     0.004910
      dxy     :     0.006306
      f0      :     0.000131  f :     0.001497
      f+1     :     0.000308
      f-1     :     0.000059
      f+2     :     0.000204
      f-2     :     0.000194
      f+3     :     0.000265
      f-3     :     0.000335

  3 C s       :     3.240476  s :     3.240476
      pz      :     1.014269  p :     2.688743
      px      :     0.699435
      py      :     0.975039
      dz2     :     0.026660  d :     0.123247
      dxz     :     0.028044
      dyz     :     0.012969
      dx2y2   :     0.031633
      dxy     :     0.023941
      f0      :     0.001387  f :     0.009230
      f+1     :     0.001356
      f-1     :     0.000794
      f+2     :     0.000901
      f-2     :     0.001236
      f+3     :     0.002050
      f-3     :     0.001505

  4 C s       :     3.224949  s :     3.224949
      pz      :     0.950777  p :     2.891247
      px      :     0.933222
      py      :     1.007248
      dz2     :     0.018363  d :     0.082677
      dxz     :     0.023075
      dyz     :     0.008308
      dx2y2   :     0.020905
      dxy     :     0.012027
      f0      :     0.000909  f :     0.005402
      f+1     :     0.001042
      f-1     :     0.000415
      f+2     :     0.000603
      f-2     :     0.000710
      f+3     :     0.000906
      f-3     :     0.000817

  5 C s       :     3.241175  s :     3.241175
      pz      :     0.966932  p :     2.867971
      px      :     0.908263
      py      :     0.992777
      dz2     :     0.021945  d :     0.090327
      dxz     :     0.021822
      dyz     :     0.009405
      dx2y2   :     0.024001
      dxy     :     0.013155
      f0      :     0.000917  f :     0.005448
      f+1     :     0.001005
      f-1     :     0.000508
      f+2     :     0.000642
      f-2     :     0.000703
      f+3     :     0.000882
      f-3     :     0.000791

  6 C s       :     3.300541  s :     3.300541
      pz      :     0.969245  p :     3.032276
      px      :     1.014991
      py      :     1.048040
      dz2     :     0.017917  d :     0.047089
      dxz     :     0.005121
      dyz     :     0.008712
      dx2y2   :     0.009543
      dxy     :     0.005796
      f0      :     0.000534  f :     0.003266
      f+1     :     0.000903
      f-1     :     0.000395
      f+2     :     0.000409
      f-2     :     0.000368
      f+3     :     0.000089
      f-3     :     0.000569

  7 O s       :     3.749519  s :     3.749519
      pz      :     1.723107  p :     4.521646
      px      :     1.562185
      py      :     1.236354
      dz2     :     0.003851  d :     0.030337
      dxz     :     0.004119
      dyz     :     0.005621
      dx2y2   :     0.006740
      dxy     :     0.010005
      f0      :     0.000198  f :     0.001512
      f+1     :     0.000133
      f-1     :     0.000296
      f+2     :     0.000139
      f-2     :     0.000178
      f+3     :     0.000218
      f-3     :     0.000349

  8 C s       :     3.248273  s :     3.248273
      pz      :     1.064937  p :     2.695420
      px      :     0.999193
      py      :     0.631290
      dz2     :     0.011085  d :     0.123326
      dxz     :     0.022034
      dyz     :     0.027503
      dx2y2   :     0.034366
      dxy     :     0.028338
      f0      :     0.001289  f :     0.009195
      f+1     :     0.000898
      f-1     :     0.000696
      f+2     :     0.001574
      f-2     :     0.000392
      f+3     :     0.002669
      f-3     :     0.001677

  9 C s       :     3.223228  s :     3.223228
      pz      :     0.946985  p :     2.876920
      px      :     0.931035
      py      :     0.998899
      dz2     :     0.015799  d :     0.086628
      dxz     :     0.033349
      dyz     :     0.014473
      dx2y2   :     0.015423
      dxy     :     0.007585
      f0      :     0.001209  f :     0.005373
      f+1     :     0.001094
      f-1     :     0.000783
      f+2     :     0.000329
      f-2     :     0.000601
      f+3     :     0.000691
      f-3     :     0.000665

 10 C s       :     3.237720  s :     3.237720
      pz      :     0.923216  p :     2.877862
      px      :     0.954947
      py      :     0.999699
      dz2     :     0.015498  d :     0.089526
      dxz     :     0.030348
      dyz     :     0.013203
      dx2y2   :     0.022529
      dxy     :     0.007948
      f0      :     0.001195  f :     0.005404
      f+1     :     0.001005
      f-1     :     0.000742
      f+2     :     0.000295
      f-2     :     0.000600
      f+3     :     0.000898
      f-3     :     0.000667

 11 C s       :     3.299142  s :     3.299142
      pz      :     1.055679  p :     3.033346
      px      :     0.962137
      py      :     1.015530
      dz2     :     0.005719  d :     0.046816
      dxz     :     0.015502
      dyz     :     0.001708
      dx2y2   :     0.019848
      dxy     :     0.004039
      f0      :     0.000588  f :     0.003247
      f+1     :     0.000597
      f-1     :     0.000131
      f+2     :     0.000090
      f-2     :     0.000340
      f+3     :     0.000827
      f-3     :     0.000674

 12 O s       :     3.753334  s :     3.753334
      pz      :     1.431593  p :     4.525228
      px      :     1.638696
      py      :     1.454939
      dz2     :     0.008809  d :     0.030485
      dxz     :     0.004806
      dyz     :     0.005766
      dx2y2   :     0.005623
      dxy     :     0.005482
      f0      :     0.000180  f :     0.001530
      f+1     :     0.000232
      f-1     :     0.000217
      f+2     :     0.000138
      f-2     :     0.000249
      f+3     :     0.000261
      f-3     :     0.000253

 13 C s       :     3.259185  s :     3.259185
      pz      :     0.724010  p :     2.688773
      px      :     1.008338
      py      :     0.956426
      dz2     :     0.023294  d :     0.121005
      dxz     :     0.028249
      dyz     :     0.030485
      dx2y2   :     0.014144
      dxy     :     0.024833
      f0      :     0.002078  f :     0.009180
      f+1     :     0.001566
      f-1     :     0.001341
      f+2     :     0.001555
      f-2     :     0.000909
      f+3     :     0.000742
      f-3     :     0.000990

 14 C s       :     3.221333  s :     3.221333
      pz      :     0.959324  p :     2.889489
      px      :     1.014751
      py      :     0.915415
      dz2     :     0.014077  d :     0.082962
      dxz     :     0.020053
      dyz     :     0.016828
      dx2y2   :     0.012049
      dxy     :     0.019954
      f0      :     0.001031  f :     0.005408
      f+1     :     0.000852
      f-1     :     0.000550
      f+2     :     0.000837
      f-2     :     0.000527
      f+3     :     0.000706
      f-3     :     0.000905

 15 C s       :     3.241477  s :     3.241477
      pz      :     0.934270  p :     2.867897
      px      :     0.996370
      py      :     0.937257
      dz2     :     0.013286  d :     0.090381
      dxz     :     0.020338
      dyz     :     0.024185
      dx2y2   :     0.011462
      dxy     :     0.021110
      f0      :     0.001098  f :     0.005448
      f+1     :     0.000831
      f-1     :     0.000540
      f+2     :     0.000947
      f-2     :     0.000493
      f+3     :     0.000650
      f-3     :     0.000889

 16 C s       :     3.300516  s :     3.300516
      pz      :     1.057127  p :     3.032581
      px      :     1.043685
      py      :     0.931769
      dz2     :     0.002640  d :     0.047131
      dxz     :     0.007267
      dyz     :     0.014568
      dx2y2   :     0.006148
      dxy     :     0.016509
      f0      :     0.000407  f :     0.003267
      f+1     :     0.000542
      f-1     :     0.000206
      f+2     :     0.000467
      f-2     :     0.000204
      f+3     :     0.000597
      f-3     :     0.000843

 17 H s       :     0.849563  s :     0.849563
      pz      :     0.010929  p :     0.020399
      px      :     0.004720
      py      :     0.004749

 18 H s       :     0.843411  s :     0.843411
      pz      :     0.004473  p :     0.020191
      px      :     0.003193
      py      :     0.012526

 19 H s       :     0.862566  s :     0.862566
      pz      :     0.010113  p :     0.020985
      px      :     0.005879
      py      :     0.004993

 20 H s       :     0.864940  s :     0.864940
      pz      :     0.004405  p :     0.020944
      px      :     0.004331
      py      :     0.012208

 21 H s       :     0.868276  s :     0.868276
      pz      :     0.004596  p :     0.020962
      px      :     0.004387
      py      :     0.011978

 22 H s       :     0.868146  s :     0.868146
      pz      :     0.010099  p :     0.020960
      px      :     0.005863
      py      :     0.004997

 23 H s       :     0.847735  s :     0.847735
      pz      :     0.004515  p :     0.020870
      px      :     0.010680
      py      :     0.005674

 24 H s       :     0.856031  s :     0.856031
      pz      :     0.004575  p :     0.020655
      px      :     0.004678
      py      :     0.011402

 25 H s       :     0.856027  s :     0.856027
      pz      :     0.009976  p :     0.020654
      px      :     0.005444
      py      :     0.005234

 26 H s       :     0.842620  s :     0.842620
      pz      :     0.007875  p :     0.020287
      px      :     0.009058
      py      :     0.003354

 27 H s       :     0.841113  s :     0.841113
      pz      :     0.011379  p :     0.020449
      px      :     0.005654
      py      :     0.003416

 28 H s       :     0.865751  s :     0.865751
      pz      :     0.007993  p :     0.020941
      px      :     0.008219
      py      :     0.004729

 29 H s       :     0.860223  s :     0.860223
      pz      :     0.004722  p :     0.021029
      px      :     0.004428
      py      :     0.011880

 30 H s       :     0.872662  s :     0.872662
      pz      :     0.007812  p :     0.020896
      px      :     0.008268
      py      :     0.004815

 31 H s       :     0.862654  s :     0.862654
      pz      :     0.004713  p :     0.021257
      px      :     0.004577
      py      :     0.011967

 32 H s       :     0.856717  s :     0.856717
      pz      :     0.007071  p :     0.020660
      px      :     0.008670
      py      :     0.004920

[...]
      f-3     :     0.006841

 14 C s       :     2.685929  s :     2.685929
      pz      :     0.921643  p :     2.746212
      px      :     0.926264
      py      :     0.898305
      dz2     :     0.144625  d :     0.732799
      dxz     :     0.166333
      dyz     :     0.139320
      dx2y2   :     0.126184
      dxy     :     0.156338
      f0      :     0.006763  f :     0.039042
      f+1     :     0.004675
      f-1     :     0.005893
      f+2     :     0.006295
      f-2     :     0.003917
      f+3     :     0.004726
      f-3     :     0.006772

 15 C s       :     2.691478  s :     2.691478
      pz      :     0.921254  p :     2.773952
      px      :     0.932073
      py      :     0.920625
      dz2     :     0.140012  d :     0.766977
      dxz     :     0.162210
      dyz     :     0.165810
      dx2y2   :     0.129294
      dxy     :     0.169651
      f0      :     0.007056  f :     0.039344
      f+1     :     0.004653
      f-1     :     0.005794
      f+2     :     0.007041
      f-2     :     0.004040
      f+3     :     0.004359
      f-3     :     0.006402

 16 C s       :     2.746769  s :     2.746769
      pz      :     0.969521  p :     2.891395
      px      :     0.971168
      py      :     0.950706
      dz2     :     0.051378  d :     0.464061
      dxz     :     0.079241
      dyz     :     0.112054
      dx2y2   :     0.086223
      dxy     :     0.135166
      f0      :     0.002861  f :     0.025992
      f+1     :     0.002696
      f-1     :     0.003756
      f+2     :     0.004295
      f-2     :     0.002217
      f+3     :     0.004180
      f-3     :     0.005987

 17 H s       :     0.669191  s :     0.669191
      pz      :     0.090531  p :     0.204839
      px      :     0.060634
      py      :     0.053674

 18 H s       :     0.668720  s :     0.668720
      pz      :     0.048945  p :     0.196011
      px      :     0.046610
      py      :     0.100456

 19 H s       :     0.673803  s :     0.673803
      pz      :     0.083387  p :     0.201105
      px      :     0.061111
      py      :     0.056607

 20 H s       :     0.673503  s :     0.673503
      pz      :     0.049267  p :     0.200600
      px      :     0.052785
      py      :     0.098548

 21 H s       :     0.681836  s :     0.681836
      pz      :     0.051596  p :     0.203097
      px      :     0.052722
      py      :     0.098779

 22 H s       :     0.681880  s :     0.681880
      pz      :     0.086235  p :     0.203134
      px      :     0.059179
      py      :     0.057720

 23 H s       :     0.707021  s :     0.707021
      pz      :     0.055193  p :     0.221449
      px      :     0.097572
      py      :     0.068683

 24 H s       :     0.702163  s :     0.702163
      pz      :     0.054172  p :     0.222194
      px      :     0.059062
      py      :     0.108961

 25 H s       :     0.702079  s :     0.702079
      pz      :     0.088831  p :     0.222246
      px      :     0.069712
      py      :     0.063703

 26 H s       :     0.670001  s :     0.670001
      pz      :     0.079267  p :     0.200149
      px      :     0.075767
      py      :     0.045114

 27 H s       :     0.672906  s :     0.672906
      pz      :     0.098026  p :     0.204015
      px      :     0.055837
      py      :     0.050151

 28 H s       :     0.673208  s :     0.673208
      pz      :     0.068769  p :     0.200929
      px      :     0.074514
      py      :     0.057646

 29 H s       :     0.669417  s :     0.669417
      pz      :     0.051319  p :     0.201092
      px      :     0.052177
      py      :     0.097597

 30 H s       :     0.681476  s :     0.681476
      pz      :     0.068548  p :     0.202197
      px      :     0.077975
      py      :     0.055675

 31 H s       :     0.680605  s :     0.680605
      pz      :     0.054547  p :     0.213175
      px      :     0.054959
      py      :     0.103669

 32 H s       :     0.701777  s :     0.701777
      pz      :     0.082883  p :     0.222336
      px      :     0.078308
      py      :     0.061146

 33 H s       :     0.707047  s :     0.707047
      pz      :     0.103348  p :     0.221529
      px      :     0.059328
      py      :     0.058854

 34 H s       :     0.702265  s :     0.702265
      pz      :     0.061710  p :     0.222426
      px      :     0.056431
      py      :     0.104285

 35 H s       :     0.669467  s :     0.669467
      pz      :     0.044668  p :     0.201488
      px      :     0.083099
      py      :     0.073722

 36 H s       :     0.665204  s :     0.665204
      pz      :     0.067218  p :     0.204756
      px      :     0.082139
      py      :     0.055399

 37 H s       :     0.673401  s :     0.673401
      pz      :     0.053558  p :     0.200786
      px      :     0.081661
      py      :     0.065567

 38 H s       :     0.673746  s :     0.673746
      pz      :     0.073754  p :     0.200570
      px      :     0.076449
      py      :     0.050367

 39 H s       :     0.681836  s :     0.681836
      pz      :     0.053396  p :     0.203026
      px      :     0.081040
      py      :     0.068590

 40 H s       :     0.681748  s :     0.681748
      pz      :     0.072680  p :     0.203047
      px      :     0.078111
      py      :     0.052256

 41 H s       :     0.706979  s :     0.706979
      pz      :     0.097936  p :     0.221462
      px      :     0.065938
      py      :     0.057588

 42 H s       :     0.702129  s :     0.702129
      pz      :     0.063847  p :     0.222216
      px      :     0.090559
      py      :     0.067810

 43 H s       :     0.702165  s :     0.702165
      pz      :     0.085974  p :     0.222168
      px      :     0.082997
      py      :     0.053197



                      *****************************
                      * MAYER POPULATION ANALYSIS *
                      *****************************

  NA   - Mulliken gross atomic population
  ZA   - Total nuclear charge
  QA   - Mulliken gross atomic charge
  VA   - Mayer's total valence
  BVA  - Mayer's bonded valence
  FA   - Mayer's free valence

  ATOM       NA         ZA         QA         VA         BVA        FA
  0 O      8.8496     8.0000    -0.8496     1.6677     1.6677    -0.0000
  1 P     14.2071    15.0000     0.7929     4.3213     4.3213    -0.0000
  2 O      8.1861     8.0000    -0.1861     2.1263     2.1263     0.0000
  3 C      6.5828     6.0000    -0.5828     3.6014     3.6014     0.0000
  4 C      6.4225     6.0000    -0.4225     3.3566     3.3566    -0.0000
  5 C      6.2897     6.0000    -0.2897     2.9735     2.9735     0.0000
  6 C      7.4094     6.0000    -1.4094     3.5603     3.5603    -0.0000
  7 O      8.0385     8.0000    -0.0385     1.9157     1.9157    -0.0000
  8 C      6.5335     6.0000    -0.5335     3.7268     3.7268     0.0000
  9 C      6.6102     6.0000    -0.6102     3.6754     3.6754    -0.0000
 10 C      6.0919     6.0000    -0.0919     2.9837     2.9837     0.0000
 11 C      7.4578     6.0000    -1.4578     3.5732     3.5732    -0.0000
 12 O      8.3705     8.0000    -0.3705     1.9431     1.9431     0.0000
 13 C      6.3077     6.0000    -0.3077     3.4606     3.4606    -0.0000
 14 C      6.4615     6.0000    -0.4615     3.4410     3.4410    -0.0000
 15 C      6.2942     6.0000    -0.2942     3.0452     3.0452    -0.0000
 16 C      7.4131     6.0000    -1.4131     3.5647     3.5647    -0.0000
 17 H      0.6878     1.0000     0.3122     0.8620     0.8620    -0.0000
 18 H      0.6772     1.0000     0.3228     0.9153     0.9153     0.0000
 19 H      0.7410     1.0000     0.2590     0.9394     0.9394     0.0000
 20 H      0.7384     1.0000     0.2616     0.9265     0.9265    -0.0000
 21 H      0.6829     1.0000     0.3171     0.9019     0.9019     0.0000
 22 H      0.6877     1.0000     0.3123     0.9179     0.9179    -0.0000
 23 H      0.6107     1.0000     0.3893     0.9479     0.9479    -0.0000
 24 H      0.6516     1.0000     0.3484     0.9958     0.9958    -0.0000
 25 H      0.6517     1.0000     0.3483     0.9984     0.9984    -0.0000
 26 H      0.6691     1.0000     0.3309     0.9033     0.9033     0.0000
 27 H      0.6660     1.0000     0.3340     0.8350     0.8350     0.0000
 28 H      0.7068     1.0000     0.2932     0.9485     0.9485    -0.0000
 29 H      0.6531     1.0000     0.3469     0.9023     0.9023    -0.0000
 30 H      0.7008     1.0000     0.2992     0.8623     0.8623     0.0000
 31 H      0.8490     1.0000     0.1510     1.0564     1.0564     0.0000
 32 H      0.6597     1.0000     0.3403     1.0126     1.0126    -0.0000
 33 H      0.6103     1.0000     0.3897     0.9473     0.9473     0.0000
 34 H      0.6441     1.0000     0.3559     0.9888     0.9888    -0.0000
 35 H      0.7472     1.0000     0.2528     0.9393     0.9393     0.0000
 36 H      0.7170     1.0000     0.2830     0.9722     0.9722    -0.0000
 37 H      0.7183     1.0000     0.2817     0.9377     0.9377     0.0000
 38 H      0.7470     1.0000     0.2530     0.9438     0.9438    -0.0000
 39 H      0.6718     1.0000     0.3282     0.8979     0.8979    -0.0000
 40 H      0.6694     1.0000     0.3306     0.8937     0.8937    -0.0000
 41 H      0.6081     1.0000     0.3919     0.9448     0.9448    -0.0000
 42 H      0.6543     1.0000     0.3457     1.0034     1.0034    -0.0000
 43 H      0.6528     1.0000     0.3472     0.9967     0.9967    -0.0000

  Mayer bond orders larger than 0.100000
B(  0-O ,  1-P ) :   1.2950 B(  0-O ,  2-O ) :   0.1040 B(  1-P ,  2-O ) :   1.1213 
B(  1-P ,  7-O ) :   1.0362 B(  1-P , 12-O ) :   1.0732 B(  2-O ,  3-C ) :   0.5510 
B(  2-O ,  4-C ) :   0.1451 B(  3-C ,  4-C ) :   0.6847 B(  3-C ,  5-C ) :   0.3984 
B(  3-C , 17-H ) :   0.9070 B(  3-C , 18-H ) :   0.9016 B(  4-C ,  5-C ) :   0.4990 
B(  4-C ,  6-C ) :   0.2245 B(  4-C , 19-H ) :   0.9766 B(  4-C , 20-H ) :   0.9601 
B(  5-C ,  6-C ) :   0.5083 B(  5-C , 21-H ) :   0.9091 B(  5-C , 22-H ) :   0.9256 
B(  6-C , 23-H ) :   0.9059 B(  6-C , 24-H ) :   0.9380 B(  6-C , 25-H ) :   0.9403 
B(  7-O ,  8-C ) :   0.6051 B(  8-C ,  9-C ) :   1.0666 B(  8-C , 10-C ) :   0.1585 
B(  8-C , 26-H ) :   0.8507 B(  8-C , 27-H ) :   0.8541 B(  9-C , 10-C ) :   0.6113 
B(  9-C , 11-C ) :   0.2401 B(  9-C , 28-H ) :   0.9205 B(  9-C , 29-H ) :   0.8974 
B( 10-C , 11-C ) :   0.4462 B( 10-C , 30-H ) :   0.9370 B( 10-C , 31-H ) :   1.0612 
B( 11-C , 32-H ) :   0.9638 B( 11-C , 33-H ) :   0.9033 B( 11-C , 34-H ) :   0.9310 
B( 12-O , 13-C ) :   0.4764 B( 12-O , 14-C ) :   0.1606 B( 13-C , 14-C ) :   0.7200 
B( 13-C , 15-C ) :   0.2636 B( 13-C , 35-H ) :   0.9323 B( 13-C , 36-H ) :   0.9406 
B( 14-C , 15-C ) :   0.6010 B( 14-C , 16-C ) :   0.2170 B( 14-C , 37-H ) :   0.9385 
B( 14-C , 38-H ) :   0.9518 B( 15-C , 16-C ) :   0.5184 B( 15-C , 39-H ) :   0.9000 
B( 15-C , 40-H ) :   0.9016 B( 16-C , 41-H ) :   0.9046 B( 16-C , 42-H ) :   0.9429 
B( 16-C , 43-H ) :   0.9402 

-------
TIMINGS
-------

Total SCF time: 0 days 0 hours 0 min 29 sec 

Total time                  ....      29.060 sec
Sum of individual times     ....      29.007 sec  ( 99.8%)

SCF preparation             ....       1.430 sec  (  4.9%)
Fock matrix formation       ....      22.318 sec  ( 76.8%)
  Startup                   ....       0.179 sec  (  0.8% of F)
  Split-RI-J                ....       5.378 sec  ( 24.1% of F)
  XC integration            ....      11.769 sec  ( 52.7% of F)
    Basis function eval.    ....       1.418 sec  ( 12.0% of XC)
    Density eval.           ....       3.103 sec  ( 26.4% of XC)
    XC-Functional eval.     ....       0.087 sec  (  0.7% of XC)
    XC-Potential eval.      ....       2.821 sec  ( 24.0% of XC)
  CPCM terms                ....       4.517 sec  ( 20.2% of F)
Diagonalization             ....       0.000 sec  (  0.0%)
Density matrix formation    ....       0.499 sec  (  1.7%)
Total Energy calculation    ....       0.264 sec  (  0.9%)
Population analysis         ....       0.309 sec  (  1.1%)
Orbital Transformation      ....       0.711 sec  (  2.4%)
Orbital Orthonormalization  ....       0.000 sec  (  0.0%)
DIIS solution               ....       2.007 sec  (  6.9%)
SOSCF solution              ....       1.470 sec  (  5.1%)
Finished LeanSCF after  29.3 sec

Maximum memory used throughout the entire LEANSCF-calculation: 106.6 MB

-------------------------   --------------------
FINAL SINGLE POINT ENERGY     -1116.281636760918
-------------------------   --------------------



           ************************************************************
           *        Program running with 16 parallel MPI-processes    *
           *              working on a common directory               *
           ************************************************************

------------------------------------------------------------------------------
                              ORCA PROPERTY CALCULATIONS
------------------------------------------------------------------------------

GBWName                                 ... single_point_tzvpd.gbw
Number of atoms                         ...     44
Number of basis functions               ...    890
Max core memory                         ...   2000 MB

Electric properties:
Dipole moment                           ... YES
Quadrupole moment                       ...  NO
Static polarizability (Dipole/Dipole)   ...  NO
Static polarizability (Dipole/Quad.)    ...  NO
Static polarizability (Quad./Quad.)     ...  NO
Static polarizability (Velocity)        ...  NO

Atomic electric properties:
Dipole moment                           ...  NO
Quadrupole moment                       ...  NO
Static polarizability                   ...  NO

Choice of electric origin               ... Center of mass
Position of electric origin             ...     0.037376     0.162294     0.832645

General magnetic properties:
Magnetizability                         ...  NO

EPR properties:
g-Tensor (aka g-matrix)                 ...  NO
Zero-Field splitting spin-orbit         ...  NO
Zero-field splitting spin-spin          ...  NO
Hyperfine couplings                     ...  NO (   0 nuclei)
Quadrupole couplings                    ...  NO (   0 nuclei)
Contact density                         ...  NO (   0 nuclei)

NMR properties:
Chemical shifts                         ...  NO (   0 nuclei)
Spin-rotation constants                 ...  NO (   0 nuclei)
Spin-spin couplings                     ...  NO (   0 nuclei,    0 pairs)

Choice of magnetic origin               ... GIAO
Position of magnetic origin             ...     0.000000     0.000000     0.000000

Properties with geometric perturbations:
SCF Hessian                             ...  NO
IR spectrum                             ...  NO
VCD spectrum                            ...  NO
X-ray spectroscopy properties:
SCF XES/XAS/RIXS spectra                ...  NO


-------------
DIPOLE MOMENT
-------------

Method             : SCF
Type of density    : Electron Density
Multiplicity       :   1
Irrep              :   0
Energy             : -1116.2816367609175359 Eh
Relativity type    : 
Basis              : AO
                                X                 Y                 Z
Electronic contribution:      0.881377712       3.476431912      17.531099979
Nuclear contribution   :     -0.775945674      -3.456777397     -19.929245612
                        -----------------------------------------
Total Dipole Moment    :      0.105432037       0.019654515      -2.398145633
                        -----------------------------------------
Magnitude (a.u.)       :      2.400542582
Magnitude (Debye)      :      6.101694335



--------------------
Rotational spectrum 
--------------------
 
Rotational constants in cm-1:             0.009303             0.007716             0.005165 
Rotational constants in MHz :           278.906647           231.324435           154.834266 

Dipole components along the rotational axes: 
x,y,z [a.u.] :    -0.308291    -0.183821    -2.373557 
x,y,z [Debye]:    -0.783613    -0.467235    -6.033102 

 

Dipole moment calculation done in   0.1 sec 

Maximum memory used throughout the entire PROP-calculation: 80.9 MB

--------------------------------
SUGGESTED CITATIONS FOR THIS RUN
--------------------------------

Below you find a list of papers that are relevant to this ORCA run
We neither can nor want to force you to cite these papers, but we appreciate if you do
You receive ORCA, which is the product of decades of hard work by many enthusiastic individuals, for free
The only thing we kindly ask in return is that you cite our papers,
We deeply appreciate it, if you show your appreciation for ORCA by not just citing the generic ORCA reference.

Please note that relegating all ORCA citations to the supporting information does *not* help us.
SI sections are not indexed - citations you put there will not count into any citation statistics
But we need these citations in order to attract the funding resources that allow us to do what we are doing

Therefore, if you are a happy ORCA user, please consider citing a few of the papers listed below in the main body of your paper

In addition to the list printed below, the program has created the file single_point_tzvpd.bibtex that contains the list in bibtex format
You can import this file easily into all common literature databanks and citation aid programs


List of essential papers. We consider these as the minimum necessary citations

  1. Neese,F.
     Software update: the ORCA program system, version 5.0
     WIRES Comput. Molec. Sci., 2022 12(1)e1606
     doi.org/10.1002/wcms.1606

List of papers to cite with high priority. The work reported in these papers was absolutely
necessary for this run to complete.
Our perspective: the developers of density functionals and basis sets usually get cited in chemistry papers
Good! But without the algorithms to do something with them, the functionals or basis sets would not do anything.
Hence, in our opinion, the algorithm design and method developments papers are equally worthy of getting cited

  1. Neese,F.
     An improvement of the resolution of the identity approximation for the formation of the Coulomb matrix
     J. Comp. Chem., 2003 24(14)1740-1747
     doi.org/10.1002/jcc.10318
  2. Garcia-Rates,M.; Neese,F.
     Effect of the Solute Cavity on the Solvation Energy and its Derivatives within the Framework of the Gaussian Charge Scheme
     J. Comput. Chem., 2020 41 922-939
     doi.org/10.1002/jcc.26139
  3. Neese,F.
     The SHARK Integral Generation and Digestion System
     J. Comp. Chem., 2022  1-16
     doi.org/10.1002/jcc.26942

List of suggested additional citations. These are papers that are important in the 'surrounding' of 
of this run, or papers that preceded the highly important papers. If you like your results we are grateful for a citation.

  1. Neese,F.
     The ORCA program system
     WIRES Comput. Molec. Sci., 2012 2(1)73-78
     doi.org/10.1002/wcms.81
  2. Neese,F.
     Software update: the ORCA program system, version 4.0
     WIRES Comput. Molec. Sci., 2018 8(1)1-6
     doi.org/10.1002/wcms.1327
  3. Neese,F.; Wennmohs,F.; Becker,U.; Riplinger,C.
     The ORCA quantum chemistry program package
     J. Chem. Phys., 2020 152 Art. No. L224108
     doi.org/10.1063/5.0004608

List of optional additional citations

  1. Neese,F.
     Approximate second-order SCF convergence for spin unrestricted wavefunctions
     Chem. Phys. Lett., 2000 325(1-3)93-98
     doi.org/10.1016/s0009-2614(00)00662-x

Timings for individual modules:

Sum of individual times          ...       37.505 sec (=   0.625 min)
Startup calculation              ...        3.529 sec (=   0.059 min)   9.4 %
SCF iterations                   ...       32.281 sec (=   0.538 min)  86.1 %
Property calculations            ...        1.695 sec (=   0.028 min)   4.5 %



                             ****ORCA TERMINATED NORMALLY****
TOTAL RUN TIME: 0 days 0 hours 3 minutes 19 seconds 587 msec
