9
energy: -155.1065202613420126
C  -1.0178878934115800  -0.0910064514483500  0.0157013573149900
C  0.4439844333031800  0.3158848888081500  0.0085177589158300
O  1.2350067972566099  -0.8800132070259600  -0.0736339029364800
H  -1.2715536494718600  -0.6379815630818100  -0.9031139826168600
H  -1.6634035542766299  0.7967182233700700  0.0815174072737600
H  -1.2332049550672100  -0.7417455531656399  0.8747506748558600
H  0.6497278250298900  0.9788422234768600  -0.8535247643038399
H  0.6856990283366901  0.8800826287087800  0.9295225299401000
H  2.1716319683009102  -0.6207811896421200  -0.0797370784433800
