15
energy: -232.2355429142959906
C  -2.1838099999999998  0.0991100000000000  -0.3195500000000000
C  -0.7483900000000000  0.4425800000000000  -0.7068500000000000
C  0.2379100000000000  -0.5866200000000000  -0.1435000000000000
C  1.6768300000000000  -0.2404800000000000  -0.5328600000000000
H  1.9418700000000000  0.7629899999999999  -0.1365900000000000
H  -2.2940700000000001  0.0909300000000000  0.7858400000000000
H  -2.4643600000000001  -0.8976499999999999  -0.7218700000000000
H  -2.8750200000000001  0.8595800000000000  -0.7401200000000000
H  -0.6717100000000000  0.4654100000000000  -1.8159200000000000
H  -0.5019600000000000  1.4521100000000000  -0.3112200000000000
H  0.1586200000000000  -0.6087300000000000  0.9656800000000000
H  -0.0128000000000000  -1.5950000000000000  -0.5400300000000000
O  2.5662799999999999  -1.1773100000000001  0.0107000000000000
H  1.7906200000000001  -0.1991600000000000  -1.6405600000000000
H  2.5176799999999999  -1.9840899999999999  -0.5659900000000000
