5
energy: -959.8415842903649491
C  -0.0014780079621200  -0.1488055718498500  0.0036315421772900
Cl  1.4982448009306399  0.8181210172301200  -0.0593406289534800
Cl  -1.4818506102956399  0.8492981406768700  0.0186062253126700
H  -0.0313749866357400  -0.7811953527754700  -0.8866403030657301
H  0.0164588039628600  -0.7374182332816500  0.9237431645292400
