
                                 *****************
                                 * O   R   C   A *
                                 *****************

                                            #,                                       
                                            ###                                      
                                            ####                                     
                                            #####                                    
                                            ######                                   
                                           ########,                                 
                                     ,,################,,,,,                         
                               ,,#################################,,                 
                          ,,##########################################,,             
                       ,#########################################, ''#####,          
                    ,#############################################,,   '####,        
                  ,##################################################,,,,####,       
                ,###########''''           ''''###############################       
              ,#####''   ,,,,##########,,,,          '''####'''          '####       
            ,##' ,,,,###########################,,,                        '##       
           ' ,,###''''                  '''############,,,                           
         ,,##''                                '''############,,,,        ,,,,,,###''
      ,#''                                            '''#######################'''  
     '                                                          ''''####''''         
             ,#######,   #######,   ,#######,      ##                                
            ,#'     '#,  ##    ##  ,#'     '#,    #''#        ,####,   ,####,        
            ##       ##  ##   ,#'  ##            #'  '#       #'       #'  '#        
            ##       ##  #######   ##           ,######,      #####,   #    #        
            '#,     ,#'  ##    ##  '#,     ,#' ,#      #,     #,   #   #,  ,#        
             '#######'   ##     ##  '#######'  #'      '#     '####' # '####'        



                #########################################################
                #                        -***-                          #
                #          Department of theory and spectroscopy        #
                #                                                       #
                #                      Frank Neese                      #
                #                                                       #
                #     Directorship, Architecture, Infrastructure        #
                #                    SHARK, DRIVERS                     #
                #        Core code/Algorithms in most modules           #
                #                                                       #
                #        Max Planck Institute fuer Kohlenforschung      #
                #                Kaiser Wilhelm Platz 1                 #
                #                 D-45470 Muelheim/Ruhr                 #
                #                      Germany                          #
                #                                                       #
                #                  All rights reserved                  #
                #                        -***-                          #
                #########################################################


                         Program Version 6.0.0  -   RELEASE  -


 With contributions from (in alphabetic order):
   Daniel Aravena         : Magnetic Suceptibility
   Michael Atanasov       : Ab Initio Ligand Field Theory (pilot matlab implementation)
   Alexander A. Auer      : GIAO ZORA, VPT2 properties, NMR spectrum
   Ute Becker             : All parallelization in ORCA, NUMFREQ, NUMCALC
   Giovanni Bistoni       : ED, misc. LED, open-shell LED, HFLD
   Martin Brehm           : Molecular dynamics
   Dmytro Bykov           : pre 5.0 version of the SCF Hessian
   Marcos Casanova-Páez   : Triplet and SCS-CIS(D). UHF-(DLPNO)-IP/EA/STEOM-CCSD. UHF-CVS-IP/STEOM-CCSD
   Vijay G. Chilkuri      : MRCI spin determinant printing, contributions to CSF-ICE
   Pauline Colinet        : FMM embedding
   Dipayan Datta          : RHF DLPNO-CCSD density
   Achintya Kumar Dutta   : EOM-CC, STEOM-CC
   Nicolas Foglia         : Exact transition moments, OPA infrastructure, MCD improvements
   Dmitry Ganyushin       : Spin-Orbit,Spin-Spin,Magnetic field MRCI
   Miquel Garcia          : C-PCM and meta-GGA Hessian, CCSD/C-PCM, Gaussian charge scheme
   Tiago L. C. Gouveia    : GS-ROHF, GS-ROCIS
   Yang Guo               : DLPNO-NEVPT2, F12-NEVPT2, CIM, IAO-localization
   Andreas Hansen         : Spin unrestricted coupled pair/coupled cluster methods
   Ingolf Harden          : AUTO-CI MPn and infrastructure 
   Benjamin Helmich-Paris : MC-RPA, TRAH-(SCF,CASSCF), AVAS, COSX integrals, SCF dyn. polar.
   Lee Huntington         : MR-EOM, pCC
   Robert Izsak           : Overlap fitted RIJCOSX, COSX-SCS-MP3, EOM
   Riya Kayal             : Wick's Theorem for AUTO-CI, AUTO-CI UHF-CCSDT
   Emily Kempfer          : AUTO-CI, RHF CISDT and CCSDT
   Christian Kollmar      : KDIIS, OOCD, Brueckner-CCSD(T), CCSD density, CASPT2, CASPT2-K, improved NEVPT2
   Axel Koslowski         : Symmetry handling
   Simone Kossmann        : Meta GGA functionals, TD-DFT gradient, OOMP2, (MP2 Hessian; deprecated post 5.0)
   Lucas Lang             : DCDCAS
   Marvin Lechner         : AUTO-CI (C++ implementation), FIC-MRCC
   Spencer Leger          : CASSCF response
   Dagmar Lenk            : GEPOL surface, SMD, ORCA-2-JSON
   Dimitrios Liakos       : Extrapolation schemes; Compound Job, initial MDCI parallelization
   Dimitrios Manganas     : Further ROCIS development; embedding schemes. LFT, Crystal Embedding
   Dimitrios Pantazis     : SARC Basis sets
   Anastasios Papadopoulos: AUTO-CI, single reference methods and gradients
   Taras Petrenko         : pre 6.0 DFT Hessian and TD-DFT gradient, (ASA, deprecated), ECA, 1-Electron XAS/XES, NRVS
   Peter Pinski           : DLPNO-MP2, DLPNO-MP2 Gradient
   Christoph Reimann      : Effective Core Potentials
   Marius Retegan         : Local ZFS, SOC
   Christoph Riplinger    : Optimizer, TS searches, QM/MM, DLPNO-CCSD(T), (RO)-DLPNO pert. Triples
   Michael Roemelt        : Original ROCIS implementation
   Masaaki Saitow         : Open-shell DLPNO-CCSD energy and density
   Barbara Sandhoefer     : DKH picture change effects
   Kantharuban Sivalingam : CASSCF convergence/infrastructure, NEVPT2 and variants, FIC-MRCI
   Bernardo de Souza      : ESD, SOC TD-DFT
   Georgi Stoychev        : AutoAux, RI-MP2 NMR, DLPNO-MP2 response, X2C
   Van Anh Tran           : RI-MP2 g-tensors
   Willem Van den Heuvel  : Paramagnetic NMR
   Zikuan Wang            : NOTCH, Electric field optimization 
   Frank Wennmohs         : Technical directorship and infrastructure
   Hang Xu                : AUTO-CI-Response properties 


 We gratefully acknowledge several colleagues who have allowed us to
 interface, adapt or use parts of their codes:
   Stefan Grimme, W. Hujo, H. Kruse, P. Pracht,  : VdW corrections, initial TS optimization,
                  C. Bannwarth, S. Ehlert,         DFT functionals, gCP, sTDA/sTD-DF
                  L. Wittmann, M. Mueller
   Ed Valeev, F. Pavosevic, A. Kumar             : LibInt (2-el integral package), F12 methods
   Garnet Chan, S. Sharma, J. Yang, R. Olivares  : DMRG
   Ulf Ekstrom                                   : XCFun DFT Library
   Mihaly Kallay                                 : mrcc  (arbitrary order and MRCC methods)
   Frank Weinhold                                : gennbo (NPA and NBO analysis)
   Simon Mueller                                 : openCOSMO-RS
   Christopher J. Cramer and Donald G. Truhlar   : smd solvation model
   Lars Goerigk                                  : TD-DFT with DH, B97 family of functionals
   V. Asgeirsson, H. Jonsson                     : NEB implementation
   FAccTs GmbH                                   : IRC, NEB, NEB-TS, DLPNO-Multilevel, CI-OPT
                                                   MM, QMMM, 2- and 3-layer-ONIOM, Crystal-QMMM,
                                                   LR-CPCM, SF, NACMEs, symmetry and pop. for TD-DFT,
                                                   nearIR, NL-DFT gradient (VV10), updates on ESD,
                                                   ML-optimized integration grids, MBIS, APM,
                                                   GOAT, DOCKER, SOLVATOR, interface openCOSMO-RS
   S Lehtola, MJT Oliveira, MAL Marques          : LibXC Library
   Liviu Ungur et al                             : ANISO software


 Your calculation uses the libint2 library for the computation of 2-el integrals
 For citations please refer to: http://libint.valeyev.net

 Your ORCA version has been built with support for libXC version: 6.2.2
 For citations please refer to: https://libxc.gitlab.io

 This ORCA versions uses:
   CBLAS   interface :  Fast vector & matrix operations
   LAPACKE interface :  Fast linear algebra routines
   SCALAPACK package :  Parallel linear algebra routines
   Shared memory     :  Shared parallel matrices


NOTE: MaxCore=2000 MB was set to SCF,MP2,MDCI,CIPSI,MRCI and CIS
      => If you want to overwrite this, your respective input block should be placed after the MaxCore statement


***************************************
The coordinates will be read from file: water_c000.xyz
***************************************


Warning: RI is on but no J-basis has been assigned. Assigning Def2/J (nothing to worry about!)
================================================================================

----- Orbital basis set information -----
Your calculation utilizes the basis: def2-TZVP
   F. Weigend and R. Ahlrichs, Phys. Chem. Chem. Phys. 7, 3297 (2005).

----- AuxJ basis set information -----
Your calculation utilizes the auxiliary basis: def2/J
   F. Weigend, Phys. Chem. Chem. Phys. 8, 1057 (2006).

================================================================================
                                        WARNINGS
                       Please study these warnings very carefully!
================================================================================


WARNING: Geometry Optimization
  ===> : Switching off AutoStart
         For restart on a previous wavefunction, please use MOREAD



***************************************
The coordinates will be read from file: geo_opt_tzvp.xyz
***************************************


Warning: RI is on but no J-basis has been assigned. Assigning Def2/J (nothing to worry about!)
================================================================================

----- Orbital basis set information -----
Your calculation utilizes the basis: def2-TZVPD
   F. Weigend and R. Ahlrichs, Phys. Chem. Chem. Phys. 7, 3297 (2005).
   D. Rappoport and F. Furche, J. Chem. Phys. 133, 134105 (2010)
   D. Rappoport, J. Chem. Phys. 155, 124102 (2021).

----- AuxJ basis set information -----
Your calculation utilizes the auxiliary basis: def2/J
   F. Weigend, Phys. Chem. Chem. Phys. 8, 1057 (2006).

================================================================================
                                        WARNINGS
                       Please study these warnings very carefully!
================================================================================


================================================================================
                                       INPUT FILE
================================================================================
NAME = input.dat
|  1> %MaxCore 2000
|  2> 
|  3> %base "geo_opt_tzvp"
|  4> 
|  5> %cpcm
|  6> radius[1]  1.3
|  7> radius[2]  1.601
|  8> radius[5]  2.048
|  9> radius[6]  2.0
| 10> radius[7]  1.83
| 11> radius[8]  1.72
| 12> radius[9]  1.72
| 13> radius[10]  1.771
| 14> radius[13]  2.152
| 15> radius[14]  2.2
| 16> radius[15]  2.106
| 17> radius[16]  2.16
| 18> radius[17]  2.05
| 19> radius[18]  2.184
| 20> radius[22]  2.261
| 21> radius[26]  2.195
| 22> radius[27]  2.153
| 23> radius[31]  2.172
| 24> radius[32]  2.7
| 25> radius[33]  2.148
| 26> radius[34]  2.2
| 27> radius[35]  2.16
| 28> radius[36]  2.354
| 29> radius[49]  2.245
| 30> radius[50]  2.55
| 31> radius[51]  2.402
| 32> radius[53]  2.32
| 33> radius[54]  2.524
| 34> radius[80]  1.978
| 35> radius[82]  2.36
| 36> radius[86]  2.573
| 37> cut_area 0.03571064825863687
| 38> end
| 39> 
| 40> ! OPT CPCM BP86 def2-TZVP
| 41> 
| 42> * xyzfile 0 1 water_c000.xyz
| 43> 
| 44> $new_job
| 45> 
| 46> ! CPCM BP86 def2-TZVPD SP
| 47> 
| 48> %base "single_point_tzvpd"
| 49> 
| 50> * xyzfile 0 1 geo_opt_tzvp.xyz
| 51> 
| 52>                          ****END OF INPUT****
================================================================================


                 $$$$$$$$$$$$$$$$$$$$$$$$$$$$$$$$$$$$$$$$$$$$$$ 
                 $ THERE ARE  2 JOBS TO BE PROCESSED THIS RUN $
                 $$$$$$$$$$$$$$$$$$$$$$$$$$$$$$$$$$$$$$$$$$$$$$ 




                 $$$$$$$$$$$$$$$$  JOB NUMBER  1 $$$$$$$$$$$$$$


                       *****************************
                       * Geometry Optimization Run *
                       *****************************

Geometry optimization settings:
Update method            Update   .... BFGS
Choice of coordinates    CoordSys .... (2022) Redundant Internals
Initial Hessian          InHess   .... Almloef's Model
Max. no of cycles        MaxIter  .... 50

Convergence Tolerances:
Energy Change            TolE     ....  5.0000e-06 Eh
Max. Gradient            TolMAXG  ....  3.0000e-04 Eh/bohr
RMS Gradient             TolRMSG  ....  1.0000e-04 Eh/bohr
Max. Displacement        TolMAXD  ....  4.0000e-03 bohr
RMS Displacement         TolRMSD  ....  2.0000e-03 bohr
Strict Convergence                .... False

------------------------------------------------------------------------------
                        ORCA OPTIMIZATION COORDINATE SETUP
------------------------------------------------------------------------------

The optimization will be done in redundant internal coordinates (2022)
Making redundant internal coordinates   ...  (2022 redundants) done
Evaluating the initial hessian          ...  (Almloef) done
Evaluating the coordinates              ...  done
Calculating the B-matrix                .... done
Calculating the G-matrix                .... done
Diagonalizing the G-matrix              .... done
The first mode is                       ....    0
The number of degrees of freedom        ....    3

    -----------------------------------------------------------------
                    Redundant Internal Coordinates


    -----------------------------------------------------------------
         Definition                    Initial Value    Approx d2E/dq
    -----------------------------------------------------------------
      1. B(H   1,O   0)                  0.9743         0.493384   
      2. B(H   2,O   0)                  0.9743         0.493378   
      3. A(H   1,O   0,H   2)          103.3987         0.316370   
    -----------------------------------------------------------------

Number of atoms                         .... 3
Number of degrees of freedom            .... 3


         *************************************************************
         *                GEOMETRY OPTIMIZATION CYCLE   1            *
         *************************************************************
---------------------------------
CARTESIAN COORDINATES (ANGSTROEM)
---------------------------------
  O     -0.000793    0.402564    0.000000
  H     -0.764188   -0.202786    0.000000
  H      0.764981   -0.199778    0.000000

----------------------------
CARTESIAN COORDINATES (A.U.)
----------------------------
  NO LB      ZA    FRAG     MASS         X           Y           Z
   0 O     8.0000    0    15.999   -0.001499    0.760736    0.000000
   1 H     1.0000    0     1.008   -1.444105   -0.383210    0.000000
   2 H     1.0000    0     1.008    1.445604   -0.377526    0.000000

--------------------------------
INTERNAL COORDINATES (ANGSTROEM)
--------------------------------
 O      0   0   0     0.000000000000     0.00000000     0.00000000
 H      1   0   0     0.974279138387     0.00000000     0.00000000
 H      1   2   0     0.974282491786   103.39869192     0.00000000

---------------------------
INTERNAL COORDINATES (A.U.)
---------------------------
 O      0   0   0     0.000000000000     0.00000000     0.00000000
 H      1   0   0     1.841120749544     0.00000000     0.00000000
 H      1   2   0     1.841127086550   103.39869192     0.00000000

---------------------
BASIS SET INFORMATION
---------------------
There are 2 groups of distinct atoms

 Group   1 Type O   : 11s6p2d1f contracted to 5s3p2d1f pattern {62111/411/11/1}
 Group   2 Type H   : 5s1p contracted to 3s1p pattern {311/1}

Atom   0O    basis set group =>   1
Atom   1H    basis set group =>   2
Atom   2H    basis set group =>   2
---------------------------------
AUXILIARY/J BASIS SET INFORMATION
---------------------------------
There are 2 groups of distinct atoms

 Group   1 Type O   : 12s5p4d2f1g contracted to 6s4p3d1f1g pattern {711111/2111/211/2/1}
 Group   2 Type H   : 5s2p1d contracted to 3s1p1d pattern {311/2/1}

Atom   0O    basis set group =>   1
Atom   1H    basis set group =>   2
Atom   2H    basis set group =>   2
------------------------------------------------------------------------------
                             ORCA STARTUP CALCULATIONS
                           -- RI-GTO INTEGRALS CHOSEN --
------------------------------------------------------------------------------
------------------------------------------------------------------------------
                   ___                                                        
                  /   \      - P O W E R E D   B Y -                         
                 /     \                                                     
                 |  |  |   _    _      __       _____    __    __             
                 |  |  |  | |  | |    /  \     |  _  \  |  |  /  |          
                  \  \/   | |  | |   /    \    | | | |  |  | /  /          
                 / \  \   | |__| |  /  /\  \   | |_| |  |  |/  /          
                |  |  |   |  __  | /  /__\  \  |    /   |      \           
                |  |  |   | |  | | |   __   |  |    \   |  |\   \          
                \     /   | |  | | |  |  |  |  | |\  \  |  | \   \       
                 \___/    |_|  |_| |__|  |__|  |_| \__\ |__|  \__/        
                                                                              
                      - O R C A' S   B I G   F R I E N D -                    
                                      &                                       
                       - I N T E G R A L  F E E D E R -                       
                                                                              
 v1 FN, 2020, v2 2021, v3 2022-2024                                           
------------------------------------------------------------------------------


----------------------
SHARK INTEGRAL PACKAGE
----------------------

Number of atoms                             ...      3
Number of basis functions                   ...     43
Number of shells                            ...     19
Maximum angular momentum                    ...      3
Integral batch strategy                     ... SHARK/LIBINT Hybrid
RI-J (if used) integral strategy            ... SPLIT-RIJ (Revised 2003 algorithm where possible)
Printlevel                                  ...      1
Contraction scheme used                     ... SEGMENTED contraction
Prescreening option                         ... SCHWARTZ
   Thresh                                   ... 2.500e-11
   Tcut                                     ... 2.500e-12
   Tpresel                                  ... 2.500e-12 
Coulomb Range Separation                    ... NOT USED
Exchange Range Separation                   ... NOT USED
Multipole approximations                    ... NOT USED
Finite Nucleus Model                        ... NOT USED
CABS basis                                  ... NOT available
Auxiliary Coulomb fitting basis             ... AVAILABLE
   # of basis functions in Aux-J            ...     71
   # of shells in Aux-J                     ...     25
   Maximum angular momentum in Aux-J        ...      4
Auxiliary J/K fitting basis                 ... NOT available
Auxiliary Correlation fitting basis         ... NOT available
Auxiliary 'external' fitting basis          ... NOT available

Checking pre-screening integrals            ... done (  0.0 sec) Dimension = 19
Check shell pair data                       ... done (  0.0 sec)
Shell pair information
Shell pair cut-off parameter TPreSel        ...   2.5e-12
Total number of shell pairs                 ...       190
Shell pairs after pre-screening             ...       190
Total number of primitive shell pairs       ...       556
Primitive shell pairs kept                  ...       535
          la=0 lb=0:     66 shell pairs
          la=1 lb=0:     55 shell pairs
          la=1 lb=1:     15 shell pairs
          la=2 lb=0:     22 shell pairs
          la=2 lb=1:     10 shell pairs
          la=2 lb=2:      3 shell pairs
          la=3 lb=0:     11 shell pairs
          la=3 lb=1:      5 shell pairs
          la=3 lb=2:      2 shell pairs
          la=3 lb=3:      1 shell pairs

Calculating one electron integrals          ... done (  0.0 sec)
Calculating RI/J V-Matrix + Cholesky decomp.... done (  0.0 sec)
Calculating Nuclear repulsion               ... done (  0.0 sec) ENN=      9.036398777302 Eh

Diagonalization of the overlap matrix:
Smallest eigenvalue                        ... 8.923e-03
Time for diagonalization                   ...    0.000 sec
Threshold for overlap eigenvalues          ... 1.000e-07
Number of eigenvalues below threshold      ... 0
Time for construction of square roots      ...    0.000 sec
Total time needed                          ...    0.001 sec

-------------------
DFT GRID GENERATION
-------------------

General Integration Accuracy     IntAcc      ... 4.388
Radial Grid Type                 RadialGrid  ... OptM3 with GC (2021)
Angular Grid (max. ang.)         AngularGrid ... 4 (Lebedev-302)
Angular grid pruning method      GridPruning ... 4 (adaptive)
Weight generation scheme         WeightScheme... mBecke (2022)
Basis function cutoff            BFCut       ... 1.0000e-11
Integration weight cutoff        WCut        ... 1.0000e-14
Partially contracted basis set               ... off
Rotationally invariant grid construction     ... off
Angular grids for H and He will be reduced by one unit

Total number of grid points                  ...    12759
Total number of batches                      ...      200
Average number of points per batch           ...       63
Average number of grid points per atom       ...     4253
Initializing property integral containers    ... done (  0.0 sec)

SHARK setup successfully completed in   0.0 seconds

Maximum memory used throughout the entire STARTUP-calculation: 13.7 MB
-------------------------------------------------------------------------------
                                 ORCA GUESS
                   Start orbitals & Density for SCF / CASSCF
-------------------------------------------------------------------------------

------------
SCF SETTINGS
------------
Hamiltonian:
 Density Functional     Method          .... DFT(GTOs)
 Exchange Functional    Exchange        .... B88
   X-Alpha parameter    XAlpha          ....  0.666667
   Becke's b parameter  XBeta           ....  0.004200
 Correlation Functional Correlation     .... P86
 LDA part of GGA corr.  LDAOpt          .... PW91-LDA
 Gradients option       PostSCFGGA      .... off
   NL short-range parameter             ....  4.400000
 RI-approximation to the Coulomb term is turned on
   Number of AuxJ basis functions       .... 71


General Settings:
 Integral files         IntName         .... geo_opt_tzvp
 Hartree-Fock type      HFTyp           .... RHF
 Total Charge           Charge          ....    0
 Multiplicity           Mult            ....    1
 Number of Electrons    NEL             ....   10
 Basis Dimension        Dim             ....   43
 Nuclear Repulsion      ENuc            ....      9.0363987773 Eh

Convergence Acceleration:
 AO-DIIS                CNVDIIS         .... on
   Start iteration      DIISMaxIt       ....    12
   Startup error        DIISStart       ....  0.200000
   # of expansion vecs  DIISMaxEq       ....     5
   Bias factor          DIISBfac        ....   1.050
   Max. coefficient     DIISMaxC        ....  10.000
 MO-DIIS                CNVKDIIS        .... off
 Trust-Rad. Augm. Hess. CNVTRAH         .... auto
   Auto Start mean grad. ratio tolernc. ....  1.125000
   Auto Start start iteration           ....    50
   Auto Start num. interpolation iter.  ....    10
   Max. Number of Micro iterations      ....    24
   Max. Number of Macro iterations      .... Maxiter - #DIIS iter
   Number of Davidson start vectors     ....     2
   Converg. threshold    (grad. norm)   ....   1.000e-05
   Grad. Scal. Fac. for Micro threshold ....   0.100
   Minimum threshold for Micro iter.    ....   1.000e-02
   NR start threshold (gradient norm)   ....   1.000e-04
   Initial trust radius                 ....   0.400
   Minimum AH scaling param. (alpha)    ....   1.000
   Maximum AH scaling param. (alpha)    .... 1000.000
   Quad. conv. algorithm                .... NR
   White noise on init. David. guess    .... on
   Maximum white noise                  ....   0.010
   Pseudo random numbers                .... off
   Inactive MOs                         .... canonical
   Orbital update algorithm             .... Taylor
   Preconditioner                       .... Diag
   Full preconditioner red. dimension   ....   250
 SOSCF                  CNVSOSCF        .... on
   Start iteration      SOSCFMaxIt      ....   150
   Startup grad/error   SOSCFStart      ....  0.003300
   Hessian update       SOSCFHessUp     .... L-BFGS
 Level Shifting         CNVShift        .... on
   Level shift para.    LevelShift      ....    0.2500
   Turn off err/grad.   ShiftErr        ....    0.0010
 Zerner damping         CNVZerner       .... off
 Static damping         CNVDamp         .... on
   Fraction old density DampFac         ....    0.7000
   Max. Damping (<1)    DampMax         ....    0.9800
   Min. Damping (>=0)   DampMin         ....    0.0000
   Turn off err/grad.   DampErr         ....    0.1000

SCF Procedure:
 Maximum # iterations   MaxIter         ....   125
 SCF integral mode      SCFMode         .... Direct
   Integral package                     .... SHARK and LIBINT hybrid scheme
 Reset frequency        DirectResetFreq ....    20
 Integral Threshold     Thresh          ....  2.500e-11 Eh
 Primitive CutOff       TCut            ....  2.500e-12 Eh

Convergence Tolerance:
 Convergence Check Mode ConvCheckMode   .... Total+1el-Energy
 Convergence forced     ConvForced      .... 0
 Energy Change          TolE            ....  1.000e-08 Eh
 1-El. energy change                    ....  1.000e-05 Eh
 Orbital Gradient       TolG            ....  1.000e-05
 Orbital Rotation angle TolX            ....  1.000e-05
 DIIS Error             TolErr          ....  5.000e-07

------------------------------
INITIAL GUESS: MODEL POTENTIAL
------------------------------
Loading Hartree-Fock densities                     ... done
Calculating cut-offs                               ... done
Initializing the effective Hamiltonian             ... done
Setting up the integral package (SHARK)            ... done
Starting the Coulomb interaction                   ... done (   0.0 sec)
Making the grid                                    ... done (   0.0 sec)
Mapping shells                                     ... done
Starting the XC term evaluation                    ... done (   0.0 sec)
  promolecular density results
     # of electrons  =      9.999296914
     EX              =     -8.776714844
     EC              =     -0.351471838
     EX+EC           =     -9.128186683
Transforming the Hamiltonian                       ... done (   0.0 sec)
Diagonalizing the Hamiltonian                      ... done (   0.0 sec)
Back transforming the eigenvectors                 ... done (   0.0 sec)
Now organizing SCF variables                       ... done
                      ------------------
                      INITIAL GUESS DONE (   0.0 sec)
                      ------------------
             **** ENERGY FILE WAS UPDATED (geo_opt_tzvp.en.tmp) ****
Finished Guess after   0.0 sec
Maximum memory used throughout the entire GUESS-calculation: 7.0 MB

-------------------------------------------------------------------------------------------
                                      ORCA LEAN-SCF
                              memory conserving SCF solver
-------------------------------------------------------------------------------------------

--------------------
CPCM SOLVATION MODEL
--------------------
CPCM parameters:
  Epsilon                                         ...     INFINITY
  Refrac                                          ...       1.3300
  Rsolv                                           ...       1.3000
  Surface type                                    ... GAUSSIAN VDW
  Discretization scheme                           ... Constant charge density
    Threshold for H atoms                         ...       5.0000 (charges/Ang^2)
    Threshold for non-H atoms                     ...       5.0000 (charges/Ang^2)
  Epsilon function type                           ...         CPCM
Solvent:                                          ... CONDUCTOR
Radii:
  Scheme                                          ... Element-dependent radii
  Radius for O  used is    3.2503 Bohr (=   1.7200 Ang.)
  Radius for H  used is    2.4566 Bohr (=   1.3000 Ang.)
Calculating surface                               ...        done! (  0.0s)
Cavity surface points                             ...          252
Cavity Volume                                     ...     171.1690
Cavity Surface-area                               ...     153.1717
Calculating surface distance matrix               ...        done! (  0.0s)
Performing Cholesky decomposition & store         ...        done! (  0.0s)
Overall time for CPCM initialization              ...                 0.0s

----------------------------------------D-I-I-S--------------------------------------------
Iteration    Energy (Eh)           Delta-E    RMSDP     MaxDP     DIISErr   Damp  Time(sec)
-------------------------------------------------------------------------------------------
               ***  Starting incremental Fock matrix formation  ***
    1    -76.3876710677548374     0.00e+00  5.94e-03  7.32e-02  3.22e-01  0.700   0.0
    2    -76.4341863289633210    -4.65e-02  3.29e-03  4.15e-02  1.08e-01  0.700   0.0
                               ***Turning on AO-DIIS***
    3    -76.4460442809075573    -1.19e-02  8.86e-04  9.58e-03  8.67e-03  0.700   0.0
    4    -76.4546373051307881    -8.59e-03  8.85e-04  1.29e-02  1.80e-02  0.000   0.0
    5    -76.4762187146504573    -2.16e-02  4.68e-04  5.59e-03  1.52e-02  0.000   0.0
    6    -76.4764180987998827    -1.99e-04  1.44e-04  1.33e-03  3.46e-03  0.000   0.0
                              *** Initializing SOSCF ***
---------------------------------------S-O-S-C-F--------------------------------------
Iteration    Energy (Eh)           Delta-E    RMSDP     MaxDP     MaxGrad    Time(sec)
--------------------------------------------------------------------------------------
    7    -76.4764303563462988    -1.23e-05  4.99e-05  4.40e-04  7.62e-04     0.0
               *** Restarting incremental Fock matrix formation ***
    8    -76.4764312894213418    -9.33e-07  3.72e-05  3.92e-04  1.41e-04     0.0
    9    -76.4764312671068751     2.23e-08  1.27e-05  1.58e-04  1.88e-04     0.0
   10    -76.4764314195926289    -1.52e-07  5.69e-06  5.16e-05  2.02e-05     0.0
   11    -76.4764314229766313    -3.38e-09  1.05e-06  1.04e-05  4.56e-06     0.0
                 **** Energy Check signals convergence ****

               *****************************************************
               *                     SUCCESS                       *
               *           SCF CONVERGED AFTER  11 CYCLES          *
               *****************************************************

             **** ENERGY FILE WAS UPDATED (geo_opt_tzvp.en.tmp) ****

----------------
TOTAL SCF ENERGY
----------------

Total Energy       :        -76.47643142297663 Eh           -2081.02950 eV

Components:
Nuclear Repulsion  :          9.03639877730153 Eh             245.89291 eV
Electronic Energy  :        -85.49921491361238 Eh           -2326.55192 eV
One Electron Energy:       -122.84011692410004 Eh           -3342.64952 eV
Two Electron Energy:         37.34090201048767 Eh            1016.09760 eV
CPCM Dielectric    :         -0.01361528666579 Eh              -0.37049 eV

Virial components:
Potential Energy   :       -152.63874884107912 Eh           -4153.51152 eV
Kinetic Energy     :         76.16231741810250 Eh            2072.48202 eV
Virial Ratio       :          2.00412427057793

DFT components:
N(Alpha)           :        5.000000003812 electrons
N(Beta)            :        5.000000003812 electrons
N(Total)           :       10.000000007625 electrons
E(X)               :       -8.970281354008 Eh       
E(C)               :       -0.359785115511 Eh       
E(XC)              :       -9.330066469519 Eh       

CPCM Solvation Model Properties:
Surface-charge          :         -0.01185856695739
Corrected charge        :          0.00000000000000
Outlying charge corr.   :          0.00002019132954 Eh               0.00055 eV
Free-energy (cav+disp)  :  This term is not implemented in the current solvation scheme

---------------
SCF CONVERGENCE
---------------

  Last Energy change         ...    3.3840e-09  Tolerance :   1.0000e-08
  Last MAX-Density change    ...    1.0374e-05  Tolerance :   1.0000e-07
  Last RMS-Density change    ...    1.0534e-06  Tolerance :   5.0000e-09
  Last DIIS Error            ...    7.6163e-04  Tolerance :   5.0000e-07
  Last Orbital Gradient      ...    4.5573e-06  Tolerance :   1.0000e-05
  Last Orbital Rotation      ...    1.2418e-05  Tolerance :   1.0000e-05


----------------
ORBITAL ENERGIES
----------------

  NO   OCC          E(Eh)            E(eV) 
   0   2.0000     -18.765159      -510.6259 
   1   2.0000      -0.920272       -25.0419 
   2   2.0000      -0.470235       -12.7957 
   3   2.0000      -0.343044        -9.3347 
   4   2.0000      -0.264716        -7.2033 
   5   0.0000       0.020110         0.5472 
   6   0.0000       0.099575         2.7096 
   7   0.0000       0.322827         8.7846 
   8   0.0000       0.371824        10.1178 
   9   0.0000       0.383135        10.4256 
  10   0.0000       0.396033        10.7766 
  11   0.0000       0.533631        14.5208 
  12   0.0000       0.566993        15.4287 
  13   0.0000       1.094674        29.7876 
  14   0.0000       1.130949        30.7747 
  15   0.0000       1.224698        33.3257 
*Only the first 10 virtual orbitals were printed.

                    ********************************
                    * MULLIKEN POPULATION ANALYSIS *
                    ********************************

-----------------------
MULLIKEN ATOMIC CHARGES
-----------------------
   0 O :   -0.725480
   1 H :    0.362754
   2 H :    0.362726
Sum of atomic charges:    0.0000000

--------------------------------
MULLIKEN REDUCED ORBITAL CHARGES
--------------------------------
  0 O s       :     3.820643  s :     3.820643
      pz      :     1.967239  p :     4.884902
      px      :     1.313262
      py      :     1.604402
      dz2     :     0.003996  d :     0.018747
      dxz     :     0.000000
      dyz     :     0.001969
      dx2y2   :     0.000435
      dxy     :     0.012347
      f0      :     0.000120  f :     0.001188
      f+1     :     0.000429
      f-1     :     0.000268
      f+2     :     0.000009
      f-2     :     0.000000
      f+3     :    -0.000003
      f-3     :     0.000365

  1 H s       :     0.592722  s :     0.592722
      pz      :     0.015331  p :     0.044524
      px      :     0.015125
      py      :     0.014067

  2 H s       :     0.592748  s :     0.592748
      pz      :     0.015332  p :     0.044526
      px      :     0.015157
      py      :     0.014037



                     *******************************
                     * LOEWDIN POPULATION ANALYSIS *
                     *******************************

----------------------
LOEWDIN ATOMIC CHARGES
----------------------
   0 O :   -0.358783
   1 H :    0.179396
   2 H :    0.179387

-------------------------------
LOEWDIN REDUCED ORBITAL CHARGES
-------------------------------
  0 O s       :     3.473945  s :     3.473945
      pz      :     1.910401  p :     4.854588
      px      :     1.318218
      py      :     1.625968
      dz2     :     0.005663  d :     0.027994
      dxz     :     0.000000
      dyz     :     0.000612
      dx2y2   :     0.000156
      dxy     :     0.021563
      f0      :     0.000000  f :     0.002256
      f+1     :     0.000688
      f-1     :     0.000313
      f+2     :     0.000000
      f-2     :     0.000000
      f+3     :     0.000283
      f-3     :     0.000973

  1 H s       :     0.664749  s :     0.664749
      pz      :     0.044493  p :     0.155855
      px      :     0.055893
      py      :     0.055468

  2 H s       :     0.664760  s :     0.664760
      pz      :     0.044494  p :     0.155854
      px      :     0.056108
      py      :     0.055252



                      *****************************
                      * MAYER POPULATION ANALYSIS *
                      *****************************

  NA   - Mulliken gross atomic population
  ZA   - Total nuclear charge
  QA   - Mulliken gross atomic charge
  VA   - Mayer's total valence
  BVA  - Mayer's bonded valence
  FA   - Mayer's free valence

  ATOM       NA         ZA         QA         VA         BVA        FA
  0 O      8.7255     8.0000    -0.7255     1.7582     1.7582     0.0000
  1 H      0.6372     1.0000     0.3628     0.8838     0.8838     0.0000
  2 H      0.6373     1.0000     0.3627     0.8839     0.8839    -0.0000

  Mayer bond orders larger than 0.100000
B(  0-O ,  1-H ) :   0.8791 B(  0-O ,  2-H ) :   0.8791 

-------
TIMINGS
-------

Total SCF time: 0 days 0 hours 0 min 0 sec 

Total time                  ....       0.296 sec
Sum of individual times     ....       0.290 sec  ( 97.9%)

SCF preparation             ....       0.012 sec  (  4.1%)
Fock matrix formation       ....       0.259 sec  ( 87.5%)
  Startup                   ....       0.002 sec  (  0.7% of F)
  Split-RI-J                ....       0.018 sec  (  6.8% of F)
  XC integration            ....       0.198 sec  ( 76.2% of F)
    Basis function eval.    ....       0.065 sec  ( 32.7% of XC)
    Density eval.           ....       0.031 sec  ( 15.9% of XC)
    XC-Functional eval.     ....       0.024 sec  ( 11.9% of XC)
    XC-Potential eval.      ....       0.038 sec  ( 19.2% of XC)
  CPCM terms                ....       0.028 sec  ( 10.7% of F)
Diagonalization             ....       0.000 sec  (  0.0%)
Density matrix formation    ....       0.004 sec  (  1.4%)
Total Energy calculation    ....       0.001 sec  (  0.5%)
Population analysis         ....       0.002 sec  (  0.5%)
Orbital Transformation      ....       0.001 sec  (  0.4%)
Orbital Orthonormalization  ....       0.000 sec  (  0.0%)
DIIS solution               ....       0.007 sec  (  2.5%)
SOSCF solution              ....       0.003 sec  (  0.9%)
Finished LeanSCF after   0.3 sec

Maximum memory used throughout the entire LEANSCF-calculation: 5.1 MB

-------------------------   --------------------
FINAL SINGLE POINT ENERGY       -76.476431422977
-------------------------   --------------------

------------------------------------------------------------------------------
                         ORCA SCF GRADIENT CALCULATION
------------------------------------------------------------------------------

Nuc. rep. gradient        (SHARK) ... done (  0.0 sec)
HCore & Overlap gradient  (SHARK) ... done (  0.0 sec)
Split-RIJ-J gradient      (SHARK) ... done (  0.0 sec)
XC gradient                       ... done (  0.1 sec)
CPCM gradient                     ... done (  0.0 sec)

------------------
CARTESIAN GRADIENT
------------------

   1   O   :    0.000010444    0.000915667    0.000000000
   2   H   :   -0.000180314   -0.000453123    0.000000000
   3   H   :    0.000169870   -0.000462544   -0.000000000

Difference to translation invariance:
           :   -0.0000000000   -0.0000000000   -0.0000000000

Difference to rotation invariance:
           :    0.0000000000    0.0000000001   -0.0000285824

Norm of the Cartesian gradient     ...    0.0011485605
RMS gradient                       ...    0.0003828535
MAX gradient                       ...    0.0009156668

-------
TIMINGS
-------

Total SCF gradient time     ....        0.120 sec

Densities                   ....       0.000 sec  (  0.0%)
One electron gradient       ....       0.001 sec  (  1.2%)
RI-J Coulomb gradient       ....       0.027 sec  ( 22.1%)
XC gradient                 ....       0.067 sec  ( 55.8%)
CPCM gradient               ....       0.013 sec  ( 10.4%)
   A-Matrix (El+Nuc)        ....       0.001 sec  (  0.7%)
   Potential                ....       0.012 sec  (  9.7%)

Maximum memory used throughout the entire SCFGRAD-calculation: 7.0 MB
------------------------------------------------------------------------------
                         ORCA GEOMETRY RELAXATION STEP
------------------------------------------------------------------------------

Reading the OPT-File                    .... done
Getting information on internals        .... done
Copying old internal coords+grads       .... done
Making the new internal coordinates     .... (2022 redundants) done
Validating the new internal coordinates .... (2022 redundants) done
Calculating the B-matrix                .... done
Calculating the G,G- and P matrices     .... done
Transforming gradient to internals      .... done
Projecting the internal gradient        .... done
Number of atoms                         ....   3
Number of internal coordinates          ....   3
Current Energy                          ....   -76.476431423 Eh
Current gradient norm                   ....     0.001148560 Eh/bohr
Maximum allowed component of the step   ....  0.300
Current trust radius                    ....  0.300
Evaluating the initial hessian          ....  (Almloef) done
Projecting the Hessian                  .... done
Forming the augmented Hessian           .... done
Diagonalizing the augmented Hessian     .... done
Last element of RFO vector              ....  0.999998206
Lowest eigenvalues of augmented Hessian:
 -0.000001393  0.316370197  0.493378508
Length of the computed step             ....  0.001893996
The final length of the internal step   ....  0.001893996
Converting the step to Cartesian space:
 Initial RMS(Int)=    0.0010934992
Transforming coordinates:
 Iter   0:  RMS(Cart)=    0.0004377193 RMS(Int)=    0.0010935451
done
Storing new coordinates                 .... done

                                .--------------------.
          ----------------------|Geometry convergence|-------------------------
          Item                value                   Tolerance       Converged
          ---------------------------------------------------------------------
          RMS gradient        0.0004351078            0.0001000000      NO
          MAX gradient        0.0004617000            0.0003000000      NO
          RMS step            0.0010934992            0.0020000000      YES
          MAX step            0.0014593630            0.0040000000      YES
          ........................................................
          Max(Bonds)      0.0005      Max(Angles)    0.08
          Max(Dihed)        0.00      Max(Improp)    0.00
          ---------------------------------------------------------------------

The optimization has not yet converged - more geometry cycles are needed


    ---------------------------------------------------------------------------
                         Redundant Internal Coordinates
                            (Angstroem and degrees)

        Definition                    Value    dE/dq     Step     New-Value
    ----------------------------------------------------------------------------
     1. B(H   1,O   0)                0.9743  0.000426 -0.0005    0.9738   
     2. B(H   2,O   0)                0.9743  0.000416 -0.0004    0.9738   
     3. A(H   1,O   0,H   2)          103.40 -0.000462    0.08    103.48   
    ----------------------------------------------------------------------------

Geometry step timings:
Preparation and reading OPT file:      0.000 s (24.096 %)
Internal coordinates            :      0.000 s ( 2.861 %)
B/P matrices and projection     :      0.000 s ( 7.530 %)
Hessian update/contruction      :      0.000 s (38.253 %)
Making the step                 :      0.000 s ( 4.217 %)
Converting the step to Cartesian:      0.000 s ( 1.807 %)
Storing new data                :      0.000 s ( 5.873 %)
Checking convergence            :      0.000 s ( 0.000 %)
Final printing                  :      0.000 s (15.211 %)
Total time                      :      0.001 s

Time for energy+gradient        :      0.658 s
Time for complete geometry iter :      0.705 s

         *************************************************************
         *                GEOMETRY OPTIMIZATION CYCLE   2            *
         *************************************************************
---------------------------------
CARTESIAN COORDINATES (ANGSTROEM)
---------------------------------
  O     -0.000796    0.402006    0.000000
  H     -0.764272   -0.202505    0.000000
  H      0.765068   -0.199500    0.000000

----------------------------
CARTESIAN COORDINATES (A.U.)
----------------------------
  NO LB      ZA    FRAG     MASS         X           Y           Z
   0 O     8.0000    0    15.999   -0.001504    0.759681    0.000000
   1 H     1.0000    0     1.008   -1.444265   -0.382680    0.000000
   2 H     1.0000    0     1.008    1.445769   -0.377001    0.000000

--------------------------------
INTERNAL COORDINATES (ANGSTROEM)
--------------------------------
 O      0   0   0     0.000000000000     0.00000000     0.00000000
 H      1   0   0     0.973822012226     0.00000000     0.00000000
 H      1   2   0     0.973836205011   103.48230726     0.00000000

---------------------------
INTERNAL COORDINATES (A.U.)
---------------------------
 O      0   0   0     0.000000000000     0.00000000     0.00000000
 H      1   0   0     1.840256906292     0.00000000     0.00000000
 H      1   2   0     1.840283726769   103.48230726     0.00000000

------------------------------------------------------------------------------
                   ___                                                        
                  /   \      - P O W E R E D   B Y -                         
                 /     \                                                     
                 |  |  |   _    _      __       _____    __    __             
                 |  |  |  | |  | |    /  \     |  _  \  |  |  /  |          
                  \  \/   | |  | |   /    \    | | | |  |  | /  /          
                 / \  \   | |__| |  /  /\  \   | |_| |  |  |/  /          
                |  |  |   |  __  | /  /__\  \  |    /   |      \           
                |  |  |   | |  | | |   __   |  |    \   |  |\   \          
                \     /   | |  | | |  |  |  |  | |\  \  |  | \   \       
                 \___/    |_|  |_| |__|  |__|  |_| \__\ |__|  \__/        
                                                                              
                      - O R C A' S   B I G   F R I E N D -                    
                                      &                                       
                       - I N T E G R A L  F E E D E R -                       
                                                                              
 v1 FN, 2020, v2 2021, v3 2022-2024                                           
------------------------------------------------------------------------------


----------------------
SHARK INTEGRAL PACKAGE
----------------------

Number of atoms                             ...      3
Number of basis functions                   ...     43
Number of shells                            ...     19
Maximum angular momentum                    ...      3
Integral batch strategy                     ... SHARK/LIBINT Hybrid
RI-J (if used) integral strategy            ... SPLIT-RIJ (Revised 2003 algorithm where possible)
Printlevel                                  ...      1
Contraction scheme used                     ... SEGMENTED contraction
Prescreening option                         ... SCHWARTZ
   Thresh                                   ... 2.500e-11
   Tcut                                     ... 2.500e-12
   Tpresel                                  ... 2.500e-12 
Coulomb Range Separation                    ... NOT USED
Exchange Range Separation                   ... NOT USED
Multipole approximations                    ... NOT USED
Finite Nucleus Model                        ... NOT USED
CABS basis                                  ... NOT available
Auxiliary Coulomb fitting basis             ... AVAILABLE
   # of basis functions in Aux-J            ...     71
   # of shells in Aux-J                     ...     25
   Maximum angular momentum in Aux-J        ...      4
Auxiliary J/K fitting basis                 ... NOT available
Auxiliary Correlation fitting basis         ... NOT available
Auxiliary 'external' fitting basis          ... NOT available

Checking pre-screening integrals            ... done (  0.0 sec) Dimension = 19
Check shell pair data                       ... done (  0.0 sec)
Shell pair information
Shell pair cut-off parameter TPreSel        ...   2.5e-12
Total number of shell pairs                 ...       190
Shell pairs after pre-screening             ...       190
Total number of primitive shell pairs       ...       556
Primitive shell pairs kept                  ...       535
          la=0 lb=0:     66 shell pairs
          la=1 lb=0:     55 shell pairs
          la=1 lb=1:     15 shell pairs
          la=2 lb=0:     22 shell pairs
          la=2 lb=1:     10 shell pairs
          la=2 lb=2:      3 shell pairs
          la=3 lb=0:     11 shell pairs
          la=3 lb=1:      5 shell pairs
          la=3 lb=2:      2 shell pairs
          la=3 lb=3:      1 shell pairs

Calculating one electron integrals          ... done (  0.0 sec)
Calculating RI/J V-Matrix + Cholesky decomp.... done (  0.0 sec)
Calculating Nuclear repulsion               ... done (  0.0 sec) ENN=      9.040390962213 Eh

Diagonalization of the overlap matrix:
Smallest eigenvalue                        ... 8.906e-03
Time for diagonalization                   ...    0.000 sec
Threshold for overlap eigenvalues          ... 1.000e-07
Number of eigenvalues below threshold      ... 0
Time for construction of square roots      ...    0.000 sec
Total time needed                          ...    0.001 sec

-------------------
DFT GRID GENERATION
-------------------

General Integration Accuracy     IntAcc      ... 4.388
Radial Grid Type                 RadialGrid  ... OptM3 with GC (2021)
Angular Grid (max. ang.)         AngularGrid ... 4 (Lebedev-302)
Angular grid pruning method      GridPruning ... 4 (adaptive)
Weight generation scheme         WeightScheme... mBecke (2022)
Basis function cutoff            BFCut       ... 1.0000e-11
Integration weight cutoff        WCut        ... 1.0000e-14
Partially contracted basis set               ... off
Rotationally invariant grid construction     ... off
Angular grids for H and He will be reduced by one unit

Total number of grid points                  ...    12759
Total number of batches                      ...      200
Average number of points per batch           ...       63
Average number of grid points per atom       ...     4253
Initializing property integral containers    ... done (  0.0 sec)

SHARK setup successfully completed in   0.0 seconds

Maximum memory used throughout the entire STARTUP-calculation: 13.7 MB
Occupation numbers will be reassigned to an Aufbau configuration
             **** ENERGY FILE WAS UPDATED (geo_opt_tzvp.en.tmp) ****
Finished Guess after   0.0 sec
Maximum memory used throughout the entire GUESS-calculation: 7.0 MB
--------------------
CPCM SOLVATION MODEL
--------------------
CPCM parameters:
  Epsilon                                         ...     INFINITY
  Refrac                                          ...       1.3300
  Rsolv                                           ...       1.3000
  Surface type                                    ... GAUSSIAN VDW
  Discretization scheme                           ... Constant charge density
    Threshold for H atoms                         ...       5.0000 (charges/Ang^2)
    Threshold for non-H atoms                     ...       5.0000 (charges/Ang^2)
  Epsilon function type                           ...         CPCM
Solvent:                                          ... CONDUCTOR
Radii:
  Scheme                                          ... Element-dependent radii
  Radius for O  used is    3.2503 Bohr (=   1.7200 Ang.)
  Radius for H  used is    2.4566 Bohr (=   1.3000 Ang.)
Calculating surface                               ...        done! (  0.0s)
Cavity surface points                             ...          252
Cavity Volume                                     ...     171.1566
Cavity Surface-area                               ...     153.1686
Calculating surface distance matrix               ...        done! (  0.0s)
Performing Cholesky decomposition & store         ...        done! (  0.0s)
Overall time for CPCM initialization              ...                 0.0s

----------------------------------------D-I-I-S--------------------------------------------
Iteration    Energy (Eh)           Delta-E    RMSDP     MaxDP     DIISErr   Damp  Time(sec)
-------------------------------------------------------------------------------------------
               ***  Starting incremental Fock matrix formation  ***
                              *** Initializing SOSCF ***
---------------------------------------S-O-S-C-F--------------------------------------
Iteration    Energy (Eh)           Delta-E    RMSDP     MaxDP     MaxGrad    Time(sec)
--------------------------------------------------------------------------------------
    1    -76.4764321651659031     0.00e+00  1.83e-05  1.41e-04  3.26e-05     0.0
               *** Restarting incremental Fock matrix formation ***
    2    -76.4764323313029593    -1.66e-07  1.52e-05  1.91e-04  8.49e-05     0.0
    3    -76.4764322695057217     6.18e-08  9.60e-06  1.18e-04  1.50e-04     0.0
    4    -76.4764323687826959    -9.93e-08  3.74e-07  3.32e-06  2.59e-06     0.0
    5    -76.4764323688247885    -4.21e-11  6.84e-08  5.79e-07  9.54e-07     0.0
                 **** Energy Check signals convergence ****

               *****************************************************
               *                     SUCCESS                       *
               *           SCF CONVERGED AFTER   5 CYCLES          *
               *****************************************************

             **** ENERGY FILE WAS UPDATED (geo_opt_tzvp.en.tmp) ****

----------------
TOTAL SCF ENERGY
----------------

Total Energy       :        -76.47643236882479 Eh           -2081.02952 eV

Components:
Nuclear Repulsion  :          9.04039096221312 Eh             246.00154 eV
Electronic Energy  :        -85.50321656847873 Eh           -2326.66081 eV
One Electron Energy:       -122.84729391016505 Eh           -3342.84481 eV
Two Electron Energy:         37.34407734168632 Eh            1016.18401 eV
CPCM Dielectric    :         -0.01360676255918 Eh              -0.37026 eV

Virial components:
Potential Energy   :       -152.64013910035519 Eh           -4153.54935 eV
Kinetic Energy     :         76.16370673153040 Eh            2072.51983 eV
Virial Ratio       :          2.00410596661736

DFT components:
N(Alpha)           :        5.000000014923 electrons
N(Beta)            :        5.000000014923 electrons
N(Total)           :       10.000000029845 electrons
E(X)               :       -8.970663418009 Eh       
E(C)               :       -0.359801164091 Eh       
E(XC)              :       -9.330464582099 Eh       

CPCM Solvation Model Properties:
Surface-charge          :         -0.01185447344999
Corrected charge        :          0.00000000000000
Outlying charge corr.   :          0.00002017887567 Eh               0.00055 eV
Free-energy (cav+disp)  :  This term is not implemented in the current solvation scheme

---------------
SCF CONVERGENCE
---------------

  Last Energy change         ...    4.2093e-11  Tolerance :   1.0000e-08
  Last MAX-Density change    ...    5.7946e-07  Tolerance :   1.0000e-07
  Last RMS-Density change    ...    6.8361e-08  Tolerance :   5.0000e-09
  Last DIIS Error            ...    3.3116e-04  Tolerance :   5.0000e-07
  Last Orbital Gradient      ...    9.5371e-07  Tolerance :   1.0000e-05
  Last Orbital Rotation      ...    5.2173e-07  Tolerance :   1.0000e-05


Total SCF time: 0 days 0 hours 0 min 0 sec 
Finished LeanSCF after   0.1 sec

Maximum memory used throughout the entire LEANSCF-calculation: 5.3 MB

-------------------------   --------------------
FINAL SINGLE POINT ENERGY       -76.476432368825
-------------------------   --------------------

------------------------------------------------------------------------------
                         ORCA SCF GRADIENT CALCULATION
------------------------------------------------------------------------------

Nuc. rep. gradient        (SHARK) ... done (  0.0 sec)
HCore & Overlap gradient  (SHARK) ... done (  0.0 sec)
Split-RIJ-J gradient      (SHARK) ... done (  0.0 sec)
XC gradient                       ... done (  0.1 sec)
CPCM gradient                     ... done (  0.0 sec)

------------------
CARTESIAN GRADIENT
------------------

   1   O   :    0.000003641    0.000304122    0.000000000
   2   H   :    0.000061443   -0.000143704   -0.000000000
   3   H   :   -0.000065084   -0.000160418   -0.000000000

Difference to translation invariance:
           :   -0.0000000000    0.0000000000    0.0000000000

Difference to rotation invariance:
           :    0.0000000002    0.0000000001   -0.0000286276

Norm of the Cartesian gradient     ...    0.0003832744
RMS gradient                       ...    0.0001277581
MAX gradient                       ...    0.0003041220

-------
TIMINGS
-------

Total SCF gradient time     ....        0.123 sec

Densities                   ....       0.000 sec  (  0.0%)
One electron gradient       ....       0.001 sec  (  1.2%)
RI-J Coulomb gradient       ....       0.027 sec  ( 21.8%)
XC gradient                 ....       0.068 sec  ( 54.8%)
CPCM gradient               ....       0.014 sec  ( 11.2%)
   A-Matrix (El+Nuc)        ....       0.001 sec  (  0.7%)
   Potential                ....       0.013 sec  ( 10.5%)

Maximum memory used throughout the entire SCFGRAD-calculation: 7.0 MB
------------------------------------------------------------------------------
                         ORCA GEOMETRY RELAXATION STEP
------------------------------------------------------------------------------

Reading the OPT-File                    .... done
Getting information on internals        .... done
Copying old internal coords+grads       .... done
Making the new internal coordinates     .... (2022 redundants) done
Validating the new internal coordinates .... (2022 redundants) done
Calculating the B-matrix                .... done
Calculating the G,G- and P matrices     .... done
Transforming gradient to internals      .... done
Projecting the internal gradient        .... done
Number of atoms                         ....   3
Number of internal coordinates          ....   3
Current Energy                          ....   -76.476432369 Eh
Current gradient norm                   ....     0.000383274 Eh/bohr
Maximum allowed component of the step   ....  0.300
Current trust radius                    ....  0.300
Updating the Hessian (BFGS)             .... done
Forming the augmented Hessian           .... done
Diagonalizing the augmented Hessian     .... done
Last element of RFO vector              ....  0.999998493
Lowest eigenvalues of augmented Hessian:
 -0.000000518  0.171856753  0.493379911
Length of the computed step             ....  0.001736307
The final length of the internal step   ....  0.001736307
Converting the step to Cartesian space:
 Initial RMS(Int)=    0.0010024570
Transforming coordinates:
 Iter   0:  RMS(Cart)=    0.0005153842 RMS(Int)=    0.0010024795
done
Storing new coordinates                 .... done
The predicted energy change is          ....    -0.000000259
Previously predicted energy change      ....    -0.000000696
Actually observed energy change         ....    -0.000000946
Ratio of predicted to observed change   ....     1.358110856
New trust radius                        ....     0.300000000

                                .--------------------.
          ----------------------|Geometry convergence|-------------------------
          Item                value                   Tolerance       Converged
          ---------------------------------------------------------------------
          Energy change      -0.0000009458            0.0000050000      YES
          RMS gradient        0.0001723580            0.0001000000      NO
          MAX gradient        0.0002918340            0.0003000000      YES
          RMS step            0.0010024570            0.0020000000      YES
          MAX step            0.0016887822            0.0040000000      YES
          ........................................................
          Max(Bonds)      0.0002      Max(Angles)    0.10
          Max(Dihed)        0.00      Max(Improp)    0.00
          ---------------------------------------------------------------------

The optimization has not yet converged - more geometry cycles are needed


    ---------------------------------------------------------------------------
                         Redundant Internal Coordinates
                            (Angstroem and degrees)

        Definition                    Value    dE/dq     Step     New-Value
    ----------------------------------------------------------------------------
     1. B(H   1,O   0)                0.9738  0.000044 -0.0002    0.9737   
     2. B(H   2,O   0)                0.9738  0.000045 -0.0002    0.9737   
     3. A(H   1,O   0,H   2)          103.48 -0.000292    0.10    103.58   
    ----------------------------------------------------------------------------

Geometry step timings:
Preparation and reading OPT file:      0.000 s (21.761 %)
Internal coordinates            :      0.000 s ( 3.322 %)
B/P matrices and projection     :      0.000 s ( 7.807 %)
Hessian update/contruction      :      0.000 s (36.213 %)
Making the step                 :      0.000 s ( 5.150 %)
Converting the step to Cartesian:      0.000 s ( 1.827 %)
Storing new data                :      0.000 s ( 6.478 %)
Checking convergence            :      0.000 s ( 1.329 %)
Final printing                  :      0.000 s (15.947 %)
Total time                      :      0.001 s

Time for energy+gradient        :      0.493 s
Time for complete geometry iter :      0.539 s

         *************************************************************
         *                GEOMETRY OPTIMIZATION CYCLE   3            *
         *************************************************************
---------------------------------
CARTESIAN COORDINATES (ANGSTROEM)
---------------------------------
  O     -0.000796    0.401513    0.000000
  H     -0.764662   -0.202259    0.000000
  H      0.765458   -0.199253    0.000000

----------------------------
CARTESIAN COORDINATES (A.U.)
----------------------------
  NO LB      ZA    FRAG     MASS         X           Y           Z
   0 O     8.0000    0    15.999   -0.001503    0.758749    0.000000
   1 H     1.0000    0     1.008   -1.445003   -0.382215    0.000000
   2 H     1.0000    0     1.008    1.446506   -0.376534    0.000000

--------------------------------
INTERNAL COORDINATES (ANGSTROEM)
--------------------------------
 O      0   0   0     0.000000000000     0.00000000     0.00000000
 H      1   0   0     0.973670208001     0.00000000     0.00000000
 H      1   2   0     0.973686081260   103.57906735     0.00000000

---------------------------
INTERNAL COORDINATES (A.U.)
---------------------------
 O      0   0   0     0.000000000000     0.00000000     0.00000000
 H      1   0   0     1.839970037880     0.00000000     0.00000000
 H      1   2   0     1.840000033992   103.57906735     0.00000000

------------------------------------------------------------------------------
                   ___                                                        
                  /   \      - P O W E R E D   B Y -                         
                 /     \                                                     
                 |  |  |   _    _      __       _____    __    __             
                 |  |  |  | |  | |    /  \     |  _  \  |  |  /  |          
                  \  \/   | |  | |   /    \    | | | |  |  | /  /          
                 / \  \   | |__| |  /  /\  \   | |_| |  |  |/  /          
                |  |  |   |  __  | /  /__\  \  |    /   |      \           
                |  |  |   | |  | | |   __   |  |    \   |  |\   \          
                \     /   | |  | | |  |  |  |  | |\  \  |  | \   \       
                 \___/    |_|  |_| |__|  |__|  |_| \__\ |__|  \__/        
                                                                              
                      - O R C A' S   B I G   F R I E N D -                    
                                      &                                       
                       - I N T E G R A L  F E E D E R -                       
                                                                              
 v1 FN, 2020, v2 2021, v3 2022-2024                                           
------------------------------------------------------------------------------


----------------------
SHARK INTEGRAL PACKAGE
----------------------

Number of atoms                             ...      3
Number of basis functions                   ...     43
Number of shells                            ...     19
Maximum angular momentum                    ...      3
Integral batch strategy                     ... SHARK/LIBINT Hybrid
RI-J (if used) integral strategy            ... SPLIT-RIJ (Revised 2003 algorithm where possible)
Printlevel                                  ...      1
Contraction scheme used                     ... SEGMENTED contraction
Prescreening option                         ... SCHWARTZ
   Thresh                                   ... 2.500e-11
   Tcut                                     ... 2.500e-12
   Tpresel                                  ... 2.500e-12 
Coulomb Range Separation                    ... NOT USED
Exchange Range Separation                   ... NOT USED
Multipole approximations                    ... NOT USED
Finite Nucleus Model                        ... NOT USED
CABS basis                                  ... NOT available
Auxiliary Coulomb fitting basis             ... AVAILABLE
   # of basis functions in Aux-J            ...     71
   # of shells in Aux-J                     ...     25
   Maximum angular momentum in Aux-J        ...      4
Auxiliary J/K fitting basis                 ... NOT available
Auxiliary Correlation fitting basis         ... NOT available
Auxiliary 'external' fitting basis          ... NOT available

Checking pre-screening integrals            ... done (  0.0 sec) Dimension = 19
Check shell pair data                       ... done (  0.0 sec)
Shell pair information
Shell pair cut-off parameter TPreSel        ...   2.5e-12
Total number of shell pairs                 ...       190
Shell pairs after pre-screening             ...       190
Total number of primitive shell pairs       ...       556
Primitive shell pairs kept                  ...       535
          la=0 lb=0:     66 shell pairs
          la=1 lb=0:     55 shell pairs
          la=1 lb=1:     15 shell pairs
          la=2 lb=0:     22 shell pairs
          la=2 lb=1:     10 shell pairs
          la=2 lb=2:      3 shell pairs
          la=3 lb=0:     11 shell pairs
          la=3 lb=1:      5 shell pairs
          la=3 lb=2:      2 shell pairs
          la=3 lb=3:      1 shell pairs

Calculating one electron integrals          ... done (  0.0 sec)
Calculating RI/J V-Matrix + Cholesky decomp.... done (  0.0 sec)
Calculating Nuclear repulsion               ... done (  0.0 sec) ENN=      9.041562467467 Eh

Diagonalization of the overlap matrix:
Smallest eigenvalue                        ... 8.901e-03
Time for diagonalization                   ...    0.000 sec
Threshold for overlap eigenvalues          ... 1.000e-07
Number of eigenvalues below threshold      ... 0
Time for construction of square roots      ...    0.000 sec
Total time needed                          ...    0.000 sec

-------------------
DFT GRID GENERATION
-------------------

General Integration Accuracy     IntAcc      ... 4.388
Radial Grid Type                 RadialGrid  ... OptM3 with GC (2021)
Angular Grid (max. ang.)         AngularGrid ... 4 (Lebedev-302)
Angular grid pruning method      GridPruning ... 4 (adaptive)
Weight generation scheme         WeightScheme... mBecke (2022)
Basis function cutoff            BFCut       ... 1.0000e-11
Integration weight cutoff        WCut        ... 1.0000e-14
Partially contracted basis set               ... off
Rotationally invariant grid construction     ... off
Angular grids for H and He will be reduced by one unit

Total number of grid points                  ...    12758
Total number of batches                      ...      200
Average number of points per batch           ...       63
Average number of grid points per atom       ...     4253
Initializing property integral containers    ... done (  0.0 sec)

SHARK setup successfully completed in   0.0 seconds

Maximum memory used throughout the entire STARTUP-calculation: 13.7 MB
Occupation numbers will be reassigned to an Aufbau configuration
             **** ENERGY FILE WAS UPDATED (geo_opt_tzvp.en.tmp) ****
Finished Guess after   0.0 sec
Maximum memory used throughout the entire GUESS-calculation: 7.0 MB
--------------------
CPCM SOLVATION MODEL
--------------------
CPCM parameters:
  Epsilon                                         ...     INFINITY
  Refrac                                          ...       1.3300
  Rsolv                                           ...       1.3000
  Surface type                                    ... GAUSSIAN VDW
  Discretization scheme                           ... Constant charge density
    Threshold for H atoms                         ...       5.0000 (charges/Ang^2)
    Threshold for non-H atoms                     ...       5.0000 (charges/Ang^2)
  Epsilon function type                           ...         CPCM
Solvent:                                          ... CONDUCTOR
Radii:
  Scheme                                          ... Element-dependent radii
  Radius for O  used is    3.2503 Bohr (=   1.7200 Ang.)
  Radius for H  used is    2.4566 Bohr (=   1.3000 Ang.)
Calculating surface                               ...        done! (  0.0s)
Cavity surface points                             ...          252
Cavity Volume                                     ...     171.1680
Cavity Surface-area                               ...     153.1839
Calculating surface distance matrix               ...        done! (  0.0s)
Performing Cholesky decomposition & store         ...        done! (  0.0s)
Overall time for CPCM initialization              ...                 0.0s

----------------------------------------D-I-I-S--------------------------------------------
Iteration    Energy (Eh)           Delta-E    RMSDP     MaxDP     DIISErr   Damp  Time(sec)
-------------------------------------------------------------------------------------------
               ***  Starting incremental Fock matrix formation  ***
                              *** Initializing SOSCF ***
---------------------------------------S-O-S-C-F--------------------------------------
Iteration    Energy (Eh)           Delta-E    RMSDP     MaxDP     MaxGrad    Time(sec)
--------------------------------------------------------------------------------------
    1    -76.4764325452253502     0.00e+00  1.45e-05  1.14e-04  2.32e-05     0.0
               *** Restarting incremental Fock matrix formation ***
    2    -76.4764326529800371    -1.08e-07  7.30e-06  8.55e-05  4.17e-05     0.0
    3    -76.4764326503028400     2.68e-09  3.70e-06  4.01e-05  4.97e-05     0.0
                 **** Energy Check signals convergence ****

               *****************************************************
               *                     SUCCESS                       *
               *           SCF CONVERGED AFTER   3 CYCLES          *
               *****************************************************

             **** ENERGY FILE WAS UPDATED (geo_opt_tzvp.en.tmp) ****

----------------
TOTAL SCF ENERGY
----------------

Total Energy       :        -76.47643265030284 Eh           -2081.02953 eV

Components:
Nuclear Repulsion  :          9.04156246746665 Eh             246.03342 eV
Electronic Energy  :        -85.50439746534941 Eh           -2326.69294 eV
One Electron Energy:       -122.84876779995270 Eh           -3342.88492 eV
Two Electron Energy:         37.34437033460328 Eh            1016.19198 eV
CPCM Dielectric    :         -0.01359765242007 Eh              -0.37001 eV

Virial components:
Potential Energy   :       -152.64049475557144 Eh           -4153.55903 eV
Kinetic Energy     :         76.16406210526860 Eh            2072.52950 eV
Virial Ratio       :          2.00410128525711

DFT components:
N(Alpha)           :        5.000000031533 electrons
N(Beta)            :        5.000000031533 electrons
N(Total)           :       10.000000063065 electrons
E(X)               :       -8.970677307803 Eh       
E(C)               :       -0.359803473484 Eh       
E(XC)              :       -9.330480781287 Eh       

CPCM Solvation Model Properties:
Surface-charge          :         -0.01185646595182
Corrected charge        :         -0.00000000000000
Outlying charge corr.   :          0.00002018609793 Eh               0.00055 eV
Free-energy (cav+disp)  :  This term is not implemented in the current solvation scheme

---------------
SCF CONVERGENCE
---------------

  Last Energy change         ...   -2.6772e-09  Tolerance :   1.0000e-08
  Last MAX-Density change    ...    4.0091e-05  Tolerance :   1.0000e-07
  Last RMS-Density change    ...    3.7033e-06  Tolerance :   5.0000e-09
  Last DIIS Error            ...    1.6612e-04  Tolerance :   5.0000e-07
  Last Orbital Gradient      ...    4.9653e-05  Tolerance :   1.0000e-05
  Last Orbital Rotation      ...    2.7304e-05  Tolerance :   1.0000e-05


Total SCF time: 0 days 0 hours 0 min 0 sec 
Finished LeanSCF after   0.1 sec

Maximum memory used throughout the entire LEANSCF-calculation: 5.4 MB

-------------------------   --------------------
FINAL SINGLE POINT ENERGY       -76.476432650303
-------------------------   --------------------

------------------------------------------------------------------------------
                         ORCA SCF GRADIENT CALCULATION
------------------------------------------------------------------------------

Nuc. rep. gradient        (SHARK) ... done (  0.0 sec)
HCore & Overlap gradient  (SHARK) ... done (  0.0 sec)
Split-RIJ-J gradient      (SHARK) ... done (  0.0 sec)
XC gradient                       ... done (  0.1 sec)
CPCM gradient                     ... done (  0.0 sec)

------------------
CARTESIAN GRADIENT
------------------

   1   O   :    0.000003005   -0.000007490    0.000000000
   2   H   :    0.000057897    0.000012606    0.000000000
   3   H   :   -0.000060902   -0.000005116   -0.000000000

Difference to translation invariance:
           :   -0.0000000000    0.0000000000    0.0000000000

Difference to rotation invariance:
           :    0.0000000001    0.0000000002   -0.0000286884

Norm of the Cartesian gradient     ...    0.0000855061
RMS gradient                       ...    0.0000285020
MAX gradient                       ...    0.0000609017

-------
TIMINGS
-------

Total SCF gradient time     ....        0.122 sec

Densities                   ....       0.000 sec  (  0.0%)
One electron gradient       ....       0.001 sec  (  1.2%)
RI-J Coulomb gradient       ....       0.027 sec  ( 21.9%)
XC gradient                 ....       0.067 sec  ( 55.2%)
CPCM gradient               ....       0.013 sec  ( 10.8%)
   A-Matrix (El+Nuc)        ....       0.001 sec  (  0.8%)
   Potential                ....       0.012 sec  ( 10.1%)

Maximum memory used throughout the entire SCFGRAD-calculation: 7.0 MB
------------------------------------------------------------------------------
                         ORCA GEOMETRY RELAXATION STEP
------------------------------------------------------------------------------

Reading the OPT-File                    .... done
Getting information on internals        .... done
Copying old internal coords+grads       .... done
Making the new internal coordinates     .... (2022 redundants) done
Validating the new internal coordinates .... (2022 redundants) done
Calculating the B-matrix                .... done
Calculating the G,G- and P matrices     .... done
Transforming gradient to internals      .... done
Projecting the internal gradient        .... done
Number of atoms                         ....   3
Number of internal coordinates          ....   3
Current Energy                          ....   -76.476432650 Eh
Current gradient norm                   ....     0.000085506 Eh/bohr
Maximum allowed component of the step   ....  0.300
Current trust radius                    ....  0.300
Updating the Hessian (BFGS)             .... done
Forming the augmented Hessian           .... done
Diagonalizing the augmented Hessian     .... done
Last element of RFO vector              ....  0.999999925
Lowest eigenvalues of augmented Hessian:
 -0.000000029  0.142166834  0.493380110
Length of the computed step             ....  0.000388001
The final length of the internal step   ....  0.000388001
Converting the step to Cartesian space:
 Initial RMS(Int)=    0.0002240123
Transforming coordinates:
 Iter   0:  RMS(Cart)=    0.0001387353 RMS(Int)=    0.0002240113
done
Storing new coordinates                 .... done
The predicted energy change is          ....    -0.000000015
[...]

SCF Procedure:
 Maximum # iterations   MaxIter         ....   125
 SCF integral mode      SCFMode         .... Direct
   Integral package                     .... SHARK and LIBINT hybrid scheme
 Reset frequency        DirectResetFreq ....    20
 Integral Threshold     Thresh          ....  2.500e-11 Eh
 Primitive CutOff       TCut            ....  2.500e-12 Eh

Convergence Tolerance:
 Convergence Check Mode ConvCheckMode   .... Total+1el-Energy
 Convergence forced     ConvForced      .... 0
 Energy Change          TolE            ....  1.000e-08 Eh
 1-El. energy change                    ....  1.000e-05 Eh
 Orbital Gradient       TolG            ....  1.000e-05
 Orbital Rotation angle TolX            ....  1.000e-05
 DIIS Error             TolErr          ....  5.000e-07

---------------------
INITIAL GUESS: MOREAD
---------------------
Guess MOs are being read from file: geo_opt_tzvp.gbw
Input Geometry matches current geometry (good)
Atom 0: N(Shells)= 14 and 11 - projection required
Input basis set needs projection
NBasis(read)= 43
NBasis(calc)= 58
Basis set overlap was calculated
Using GuessMode=FMatrix for the initial guess
C*T matrix was formed
Effective Fockian was calculated
Effective Fockian was diagonalized
Initial density was built
                      ------------------
                      INITIAL GUESS DONE (   0.0 sec)
                      ------------------
             **** ENERGY FILE WAS UPDATED (single_point_tzvpd.en.tmp) ****
Finished Guess after   0.0 sec
Maximum memory used throughout the entire GUESS-calculation: 7.3 MB

-------------------------------------------------------------------------------------------
                                      ORCA LEAN-SCF
                              memory conserving SCF solver
-------------------------------------------------------------------------------------------

--------------------
CPCM SOLVATION MODEL
--------------------
CPCM parameters:
  Epsilon                                         ...     INFINITY
  Refrac                                          ...       1.3300
  Rsolv                                           ...       1.3000
  Surface type                                    ... GAUSSIAN VDW
  Discretization scheme                           ... Constant charge density
    Threshold for H atoms                         ...       5.0000 (charges/Ang^2)
    Threshold for non-H atoms                     ...       5.0000 (charges/Ang^2)
  Epsilon function type                           ...         CPCM
Solvent:                                          ... CONDUCTOR
Radii:
  Scheme                                          ... Element-dependent radii
  Radius for O  used is    3.2503 Bohr (=   1.7200 Ang.)
  Radius for H  used is    2.4566 Bohr (=   1.3000 Ang.)
Calculating surface                               ...        done! (  0.0s)
Cavity surface points                             ...          252
Cavity Volume                                     ...     171.1749
Cavity Surface-area                               ...     153.1906
Calculating surface distance matrix               ...        done! (  0.0s)
Performing Cholesky decomposition & store         ...        done! (  0.0s)
Overall time for CPCM initialization              ...                 0.0s

----------------------------------------D-I-I-S--------------------------------------------
Iteration    Energy (Eh)           Delta-E    RMSDP     MaxDP     DIISErr   Damp  Time(sec)
-------------------------------------------------------------------------------------------
               ***  Starting incremental Fock matrix formation  ***
    1    -76.4764326445181553     0.00e+00  8.35e-04  1.04e-02  2.27e-02  0.700   0.0
    2    -76.4771668872920998    -7.34e-04  7.90e-04  9.99e-03  1.86e-02  0.700   0.0
                               ***Turning on AO-DIIS***
    3    -76.4777672947565463    -6.00e-04  6.34e-04  8.47e-03  1.39e-02  0.700   0.0
    4    -76.4781980030826389    -4.31e-04  1.55e-03  2.11e-02  1.05e-02  0.000   0.0
                              *** Initializing SOSCF ***
---------------------------------------S-O-S-C-F--------------------------------------
Iteration    Energy (Eh)           Delta-E    RMSDP     MaxDP     MaxGrad    Time(sec)
--------------------------------------------------------------------------------------
    5    -76.4792359431614841    -1.04e-03  4.29e-05  9.16e-04  8.50e-04     0.0
               *** Restarting incremental Fock matrix formation ***
    6    -76.4792372870635973    -1.34e-06  2.79e-05  6.68e-04  1.72e-04     0.0
    7    -76.4792375220969518    -2.35e-07  2.63e-06  3.33e-05  1.89e-05     0.0
    8    -76.4792375202412416     1.86e-09  1.33e-06  1.91e-05  2.30e-05     0.0
                 **** Energy Check signals convergence ****

               *****************************************************
               *                     SUCCESS                       *
               *           SCF CONVERGED AFTER   8 CYCLES          *
               *****************************************************

             **** ENERGY FILE WAS UPDATED (single_point_tzvpd.en.tmp) ****

----------------
TOTAL SCF ENERGY
----------------

Total Energy       :        -76.47923752024124 Eh           -2081.10585 eV

Components:
Nuclear Repulsion  :          9.04124211732611 Eh             246.02471 eV
Electronic Energy  :        -85.50793068712471 Eh           -2326.78909 eV
One Electron Energy:       -122.78544363970283 Eh           -3341.16178 eV
Two Electron Energy:         37.27751295257811 Eh            1014.37270 eV
CPCM Dielectric    :         -0.01254895044263 Eh              -0.34147 eV

Virial components:
Potential Energy   :       -152.61176989488894 Eh           -4152.77738 eV
Kinetic Energy     :         76.13253237464768 Eh            2071.67153 eV
Virial Ratio       :          2.00455396838617

DFT components:
N(Alpha)           :        4.999962209304 electrons
N(Beta)            :        4.999962209304 electrons
N(Total)           :        9.999924418608 electrons
E(X)               :       -8.961615549138 Eh       
E(C)               :       -0.358865813476 Eh       
E(XC)              :       -9.320481362614 Eh       

CPCM Solvation Model Properties:
Surface-charge          :         -0.01735053898813
Corrected charge        :          0.00000000000000
Outlying charge corr.   :          0.00004322801186 Eh               0.00118 eV
Free-energy (cav+disp)  :  This term is not implemented in the current solvation scheme

---------------
SCF CONVERGENCE
---------------

  Last Energy change         ...   -1.8557e-09  Tolerance :   1.0000e-08
  Last MAX-Density change    ...    1.9136e-05  Tolerance :   1.0000e-07
  Last RMS-Density change    ...    1.3276e-06  Tolerance :   5.0000e-09
  Last DIIS Error            ...    8.4966e-04  Tolerance :   5.0000e-07
  Last Orbital Gradient      ...    2.3032e-05  Tolerance :   1.0000e-05
  Last Orbital Rotation      ...    1.9965e-05  Tolerance :   1.0000e-05


----------------
ORBITAL ENERGIES
----------------

  NO   OCC          E(Eh)            E(eV) 
   0   2.0000     -18.773709      -510.8586 
   1   2.0000      -0.925424       -25.1821 
   2   2.0000      -0.475161       -12.9298 
   3   2.0000      -0.348578        -9.4853 
   4   2.0000      -0.271043        -7.3755 
   5   0.0000      -0.003700        -0.1007 
   6   0.0000       0.056461         1.5364 
   7   0.0000       0.069417         1.8889 
   8   0.0000       0.070440         1.9168 
   9   0.0000       0.133411         3.6303 
  10   0.0000       0.167711         4.5636 
  11   0.0000       0.202821         5.5191 
  12   0.0000       0.204021         5.5517 
  13   0.0000       0.224256         6.1023 
  14   0.0000       0.253646         6.9021 
  15   0.0000       0.271073         7.3763 
*Only the first 10 virtual orbitals were printed.

                    ********************************
                    * MULLIKEN POPULATION ANALYSIS *
                    ********************************

-----------------------
MULLIKEN ATOMIC CHARGES
-----------------------
   0 O :   -0.736438
   1 H :    0.368224
   2 H :    0.368215
Sum of atomic charges:   -0.0000000

--------------------------------
MULLIKEN REDUCED ORBITAL CHARGES
--------------------------------
  0 O s       :     3.812541  s :     3.812541
      pz      :     1.960622  p :     4.901239
      px      :     1.334868
      py      :     1.605749
      dz2     :     0.004494  d :     0.021493
      dxz     :     0.000000
      dyz     :     0.003206
      dx2y2   :     0.000612
      dxy     :     0.013181
      f0      :     0.000118  f :     0.001165
      f+1     :     0.000423
      f-1     :     0.000265
      f+2     :     0.000009
      f-2     :     0.000000
      f+3     :    -0.000006
      f-3     :     0.000356

  1 H s       :     0.581807  s :     0.581807
      pz      :     0.018022  p :     0.049969
      px      :     0.019919
      py      :     0.012028

  2 H s       :     0.581819  s :     0.581819
      pz      :     0.018022  p :     0.049966
      px      :     0.019961
      py      :     0.011982



                     *******************************
                     * LOEWDIN POPULATION ANALYSIS *
                     *******************************

----------------------
LOEWDIN ATOMIC CHARGES
----------------------
   0 O :   -0.100414
   1 H :    0.050204
   2 H :    0.050209

-------------------------------
LOEWDIN REDUCED ORBITAL CHARGES
-------------------------------
  0 O s       :     3.401927  s :     3.401927
      pz      :     1.789995  p :     4.655274
      px      :     1.312541
      py      :     1.552738
      dz2     :     0.008046  d :     0.040962
      dxz     :     0.000000
      dyz     :     0.000751
      dx2y2   :     0.001024
      dxy     :     0.031141
      f0      :     0.000001  f :     0.002251
      f+1     :     0.000693
      f-1     :     0.000301
      f+2     :     0.000000
      f-2     :     0.000000
      f+3     :     0.000283
      f-3     :     0.000974

  1 H s       :     0.606289  s :     0.606289
      pz      :     0.104628  p :     0.343507
      px      :     0.115683
      py      :     0.123196

  2 H s       :     0.606292  s :     0.606292
      pz      :     0.104626  p :     0.343498
      px      :     0.116036
      py      :     0.122837



                      *****************************
                      * MAYER POPULATION ANALYSIS *
                      *****************************

  NA   - Mulliken gross atomic population
  ZA   - Total nuclear charge
  QA   - Mulliken gross atomic charge
  VA   - Mayer's total valence
  BVA  - Mayer's bonded valence
  FA   - Mayer's free valence

  ATOM       NA         ZA         QA         VA         BVA        FA
  0 O      8.7364     8.0000    -0.7364     1.7535     1.7535    -0.0000
  1 H      0.6318     1.0000     0.3682     0.8891     0.8891    -0.0000
  2 H      0.6318     1.0000     0.3682     0.8891     0.8891     0.0000

  Mayer bond orders larger than 0.100000
B(  0-O ,  1-H ) :   0.8768 B(  0-O ,  2-H ) :   0.8768 

-------
TIMINGS
-------

Total SCF time: 0 days 0 hours 0 min 0 sec 

Total time                  ....       0.286 sec
Sum of individual times     ....       0.283 sec  ( 99.2%)

SCF preparation             ....       0.013 sec  (  4.7%)
Fock matrix formation       ....       0.254 sec  ( 89.1%)
  Startup                   ....       0.002 sec  (  0.6% of F)
  Split-RI-J                ....       0.018 sec  (  7.1% of F)
  XC integration            ....       0.195 sec  ( 76.7% of F)
    XC Preparation          ....       0.000 sec  (  0.0% of XC)
    Basis function eval.    ....       0.070 sec  ( 35.8% of XC)
    Density eval.           ....       0.036 sec  ( 18.2% of XC)
    XC-Functional eval.     ....       0.018 sec  (  9.2% of XC)
    XC-Potential eval.      ....       0.052 sec  ( 26.6% of XC)
  CPCM terms                ....       0.027 sec  ( 10.5% of F)
Diagonalization             ....       0.000 sec  (  0.0%)
Density matrix formation    ....       0.004 sec  (  1.3%)
Total Energy calculation    ....       0.001 sec  (  0.4%)
Population analysis         ....       0.001 sec  (  0.5%)
Orbital Transformation      ....       0.001 sec  (  0.5%)
Orbital Orthonormalization  ....       0.000 sec  (  0.0%)
DIIS solution               ....       0.006 sec  (  2.0%)
SOSCF solution              ....       0.002 sec  (  0.8%)
Finished LeanSCF after   0.3 sec

Maximum memory used throughout the entire LEANSCF-calculation: 5.6 MB

-------------------------   --------------------
FINAL SINGLE POINT ENERGY       -76.479237520241
-------------------------   --------------------


------------------------------------------------------------------------------
                              ORCA PROPERTY CALCULATIONS
------------------------------------------------------------------------------

GBWName                                 ... single_point_tzvpd.gbw
Number of atoms                         ...      3
Number of basis functions               ...     58
Max core memory                         ...   2000 MB

Electric properties:
Dipole moment                           ... YES
Quadrupole moment                       ...  NO
Static polarizability (Dipole/Dipole)   ...  NO
Static polarizability (Dipole/Quad.)    ...  NO
Static polarizability (Quad./Quad.)     ...  NO
Static polarizability (Velocity)        ...  NO

Atomic electric properties:
Dipole moment                           ...  NO
Quadrupole moment                       ...  NO
Static polarizability                   ...  NO

Choice of electric origin               ... Center of mass
Position of electric origin             ...    -0.001250     0.631252     0.000000

General magnetic properties:
Magnetizability                         ...  NO

EPR properties:
g-Tensor (aka g-matrix)                 ...  NO
Zero-Field splitting spin-orbit         ...  NO
Zero-field splitting spin-spin          ...  NO
Hyperfine couplings                     ...  NO (   0 nuclei)
Quadrupole couplings                    ...  NO (   0 nuclei)
Contact density                         ...  NO (   0 nuclei)

NMR properties:
Chemical shifts                         ...  NO (   0 nuclei)
Spin-rotation constants                 ...  NO (   0 nuclei)
Spin-spin couplings                     ...  NO (   0 nuclei,    0 pairs)

Choice of magnetic origin               ... GIAO
Position of magnetic origin             ...     0.000000     0.000000     0.000000

Properties with geometric perturbations:
SCF Hessian                             ...  NO
IR spectrum                             ...  NO
VCD spectrum                            ...  NO
X-ray spectroscopy properties:
SCF XES/XAS/RIXS spectra                ...  NO


-------------
DIPOLE MOMENT
-------------

Method             : SCF
Type of density    : Electron Density
Multiplicity       :   1
Irrep              :   0
Energy             :   -76.4792375202412416 Eh
Relativity type    : 
Basis              : AO
                                X                 Y                 Z
Electronic contribution:     -0.000239397       0.096456277      -0.000000000
Nuclear contribution   :      0.001984847      -1.002398193       0.000000000
                        -----------------------------------------
Total Dipole Moment    :      0.001745450      -0.905941915      -0.000000000
                        -----------------------------------------
Magnitude (a.u.)       :      0.905943597
Magnitude (Debye)      :      2.302725623



--------------------
Rotational spectrum 
--------------------
 
Rotational constants in cm-1:            25.968604            14.280970             9.213932 
Rotational constants in MHz :        778519.169698        428132.711058        276226.746130 

Dipole components along the rotational axes: 
x,y,z [a.u.] :     0.000018    -0.905944    -0.000000 
x,y,z [Debye]:     0.000045    -2.302726    -0.000000 

 

Dipole moment calculation done in   0.0 sec 

Maximum memory used throughout the entire PROP-calculation: 4.1 MB

--------------------------------
SUGGESTED CITATIONS FOR THIS RUN
--------------------------------

Below you find a list of papers that are relevant to this ORCA run
We neither can nor want to force you to cite these papers, but we appreciate if you do
You receive ORCA, which is the product of decades of hard work by many enthusiastic individuals, for free
The only thing we kindly ask in return is that you cite our papers,
We deeply appreciate it, if you show your appreciation for ORCA by not just citing the generic ORCA reference.

Please note that relegating all ORCA citations to the supporting information does *not* help us.
SI sections are not indexed - citations you put there will not count into any citation statistics
But we need these citations in order to attract the funding resources that allow us to do what we are doing

Therefore, if you are a happy ORCA user, please consider citing a few of the papers listed below in the main body of your paper

In addition to the list printed below, the program has created the file single_point_tzvpd.bibtex that contains the list in bibtex format
You can import this file easily into all common literature databanks and citation aid programs


List of essential papers. We consider these as the minimum necessary citations

  1. Neese,F.
     Software update: the ORCA program system, version 5.0
     WIRES Comput. Molec. Sci., 2022 12(1)e1606
     doi.org/10.1002/wcms.1606

List of papers to cite with high priority. The work reported in these papers was absolutely
necessary for this run to complete.
Our perspective: the developers of density functionals and basis sets usually get cited in chemistry papers
Good! But without the algorithms to do something with them, the functionals or basis sets would not do anything.
Hence, in our opinion, the algorithm design and method developments papers are equally worthy of getting cited

  1. Neese,F.
     An improvement of the resolution of the identity approximation for the formation of the Coulomb matrix
     J. Comp. Chem., 2003 24(14)1740-1747
     doi.org/10.1002/jcc.10318
  2. Garcia-Rates,M.; Neese,F.
     Effect of the Solute Cavity on the Solvation Energy and its Derivatives within the Framework of the Gaussian Charge Scheme
     J. Comput. Chem., 2020 41 922-939
     doi.org/10.1002/jcc.26139
  3. Neese,F.
     The SHARK Integral Generation and Digestion System
     J. Comp. Chem., 2022  1-16
     doi.org/10.1002/jcc.26942

List of suggested additional citations. These are papers that are important in the 'surrounding' of 
of this run, or papers that preceded the highly important papers. If you like your results we are grateful for a citation.

  1. Neese,F.
     The ORCA program system
     WIRES Comput. Molec. Sci., 2012 2(1)73-78
     doi.org/10.1002/wcms.81
  2. Neese,F.
     Software update: the ORCA program system, version 4.0
     WIRES Comput. Molec. Sci., 2018 8(1)1-6
     doi.org/10.1002/wcms.1327
  3. Neese,F.; Wennmohs,F.; Becker,U.; Riplinger,C.
     The ORCA quantum chemistry program package
     J. Chem. Phys., 2020 152 Art. No. L224108
     doi.org/10.1063/5.0004608

List of optional additional citations

  1. Neese,F.
     Approximate second-order SCF convergence for spin unrestricted wavefunctions
     Chem. Phys. Lett., 2000 325(1-3)93-98
     doi.org/10.1016/s0009-2614(00)00662-x

Timings for individual modules:

Sum of individual times          ...        0.519 sec (=   0.009 min)
Startup calculation              ...        0.084 sec (=   0.001 min)  16.3 %
SCF iterations                   ...        0.384 sec (=   0.006 min)  74.1 %
Property calculations            ...        0.050 sec (=   0.001 min)   9.7 %



                             ****ORCA TERMINATED NORMALLY****
TOTAL RUN TIME: 0 days 0 hours 0 minutes 2 seconds 695 msec
