13
energy: -232.5390000911330333
C  -0.7071227627119400  -0.7434342518290800  0.3314435047621300
C  0.7467208299321700  -0.7595514512621900  -0.1658423188355200
C  1.1558037685882800  0.7042687487682600  0.0225653785335200
O  -0.0395740229267200  1.4885449570940501  -0.1621275592444100
C  -1.1908105350284599  0.6209431958964600  -0.1682557755236500
H  -1.3096984968955800  -1.5757509590140000  -0.0567444289078600
H  -0.7361460353432900  -0.7841173354953800  1.4310964337624801
H  0.7838540762117100  -1.0367705959518700  -1.2305319089552900
H  1.3899942923281501  -1.4550860135354400  0.3899976409225200
H  1.5530943388259899  0.8802535566399200  1.0397922328987399
H  1.9101686652747900  1.0417837040345499  -0.7048238249068500
H  -1.5888325228119600  0.5510269800611800  -1.1979603471499400
H  -1.9674515954431600  1.0678894645935399  0.4713909726441300
