3
energy: -76.4684885136850028
O  -0.0007809142899000  0.3969563991640800  0.0000000000000000
H  -0.7671274285780000  -0.1999882197610100  0.0000000000000000
H  0.7679083428679000  -0.1969681794030700  0.0000000000000000
