
                                 *****************
                                 * O   R   C   A *
                                 *****************

                                            #,                                       
                                            ###                                      
                                            ####                                     
                                            #####                                    
                                            ######                                   
                                           ########,                                 
                                     ,,################,,,,,                         
                               ,,#################################,,                 
                          ,,##########################################,,             
                       ,#########################################, ''#####,          
                    ,#############################################,,   '####,        
                  ,##################################################,,,,####,       
                ,###########''''           ''''###############################       
              ,#####''   ,,,,##########,,,,          '''####'''          '####       
            ,##' ,,,,###########################,,,                        '##       
           ' ,,###''''                  '''############,,,                           
         ,,##''                                '''############,,,,        ,,,,,,###''
      ,#''                                            '''#######################'''  
     '                                                          ''''####''''         
             ,#######,   #######,   ,#######,      ##                                
            ,#'     '#,  ##    ##  ,#'     '#,    #''#        ,####,   ,####,        
            ##       ##  ##   ,#'  ##            #'  '#       #'       #'  '#        
            ##       ##  #######   ##           ,######,      #####,   #    #        
            '#,     ,#'  ##    ##  '#,     ,#' ,#      #,     #,   #   #,  ,#        
             '#######'   ##     ##  '#######'  #'      '#     '####' # '####'        



                #########################################################
                #                        -***-                          #
                #          Department of theory and spectroscopy        #
                #                                                       #
                #                      Frank Neese                      #
                #                                                       #
                #     Directorship, Architecture, Infrastructure        #
                #                    SHARK, DRIVERS                     #
                #        Core code/Algorithms in most modules           #
                #                                                       #
                #        Max Planck Institute fuer Kohlenforschung      #
                #                Kaiser Wilhelm Platz 1                 #
                #                 D-45470 Muelheim/Ruhr                 #
                #                      Germany                          #
                #                                                       #
                #                  All rights reserved                  #
                #                        -***-                          #
                #########################################################


                         Program Version 6.0.0  -   RELEASE  -


 With contributions from (in alphabetic order):
   Daniel Aravena         : Magnetic Suceptibility
   Michael Atanasov       : Ab Initio Ligand Field Theory (pilot matlab implementation)
   Alexander A. Auer      : GIAO ZORA, VPT2 properties, NMR spectrum
   Ute Becker             : All parallelization in ORCA, NUMFREQ, NUMCALC
   Giovanni Bistoni       : ED, misc. LED, open-shell LED, HFLD
   Martin Brehm           : Molecular dynamics
   Dmytro Bykov           : pre 5.0 version of the SCF Hessian
   Marcos Casanova-Páez   : Triplet and SCS-CIS(D). UHF-(DLPNO)-IP/EA/STEOM-CCSD. UHF-CVS-IP/STEOM-CCSD
   Vijay G. Chilkuri      : MRCI spin determinant printing, contributions to CSF-ICE
   Pauline Colinet        : FMM embedding
   Dipayan Datta          : RHF DLPNO-CCSD density
   Achintya Kumar Dutta   : EOM-CC, STEOM-CC
   Nicolas Foglia         : Exact transition moments, OPA infrastructure, MCD improvements
   Dmitry Ganyushin       : Spin-Orbit,Spin-Spin,Magnetic field MRCI
   Miquel Garcia          : C-PCM and meta-GGA Hessian, CCSD/C-PCM, Gaussian charge scheme
   Tiago L. C. Gouveia    : GS-ROHF, GS-ROCIS
   Yang Guo               : DLPNO-NEVPT2, F12-NEVPT2, CIM, IAO-localization
   Andreas Hansen         : Spin unrestricted coupled pair/coupled cluster methods
   Ingolf Harden          : AUTO-CI MPn and infrastructure 
   Benjamin Helmich-Paris : MC-RPA, TRAH-(SCF,CASSCF), AVAS, COSX integrals, SCF dyn. polar.
   Lee Huntington         : MR-EOM, pCC
   Robert Izsak           : Overlap fitted RIJCOSX, COSX-SCS-MP3, EOM
   Riya Kayal             : Wick's Theorem for AUTO-CI, AUTO-CI UHF-CCSDT
   Emily Kempfer          : AUTO-CI, RHF CISDT and CCSDT
   Christian Kollmar      : KDIIS, OOCD, Brueckner-CCSD(T), CCSD density, CASPT2, CASPT2-K, improved NEVPT2
   Axel Koslowski         : Symmetry handling
   Simone Kossmann        : Meta GGA functionals, TD-DFT gradient, OOMP2, (MP2 Hessian; deprecated post 5.0)
   Lucas Lang             : DCDCAS
   Marvin Lechner         : AUTO-CI (C++ implementation), FIC-MRCC
   Spencer Leger          : CASSCF response
   Dagmar Lenk            : GEPOL surface, SMD, ORCA-2-JSON
   Dimitrios Liakos       : Extrapolation schemes; Compound Job, initial MDCI parallelization
   Dimitrios Manganas     : Further ROCIS development; embedding schemes. LFT, Crystal Embedding
   Dimitrios Pantazis     : SARC Basis sets
   Anastasios Papadopoulos: AUTO-CI, single reference methods and gradients
   Taras Petrenko         : pre 6.0 DFT Hessian and TD-DFT gradient, (ASA, deprecated), ECA, 1-Electron XAS/XES, NRVS
   Peter Pinski           : DLPNO-MP2, DLPNO-MP2 Gradient
   Christoph Reimann      : Effective Core Potentials
   Marius Retegan         : Local ZFS, SOC
   Christoph Riplinger    : Optimizer, TS searches, QM/MM, DLPNO-CCSD(T), (RO)-DLPNO pert. Triples
   Michael Roemelt        : Original ROCIS implementation
   Masaaki Saitow         : Open-shell DLPNO-CCSD energy and density
   Barbara Sandhoefer     : DKH picture change effects
   Kantharuban Sivalingam : CASSCF convergence/infrastructure, NEVPT2 and variants, FIC-MRCI
   Bernardo de Souza      : ESD, SOC TD-DFT
   Georgi Stoychev        : AutoAux, RI-MP2 NMR, DLPNO-MP2 response, X2C
   Van Anh Tran           : RI-MP2 g-tensors
   Willem Van den Heuvel  : Paramagnetic NMR
   Zikuan Wang            : NOTCH, Electric field optimization 
   Frank Wennmohs         : Technical directorship and infrastructure
   Hang Xu                : AUTO-CI-Response properties 


 We gratefully acknowledge several colleagues who have allowed us to
 interface, adapt or use parts of their codes:
   Stefan Grimme, W. Hujo, H. Kruse, P. Pracht,  : VdW corrections, initial TS optimization,
                  C. Bannwarth, S. Ehlert,         DFT functionals, gCP, sTDA/sTD-DF
                  L. Wittmann, M. Mueller
   Ed Valeev, F. Pavosevic, A. Kumar             : LibInt (2-el integral package), F12 methods
   Garnet Chan, S. Sharma, J. Yang, R. Olivares  : DMRG
   Ulf Ekstrom                                   : XCFun DFT Library
   Mihaly Kallay                                 : mrcc  (arbitrary order and MRCC methods)
   Frank Weinhold                                : gennbo (NPA and NBO analysis)
   Simon Mueller                                 : openCOSMO-RS
   Christopher J. Cramer and Donald G. Truhlar   : smd solvation model
   Lars Goerigk                                  : TD-DFT with DH, B97 family of functionals
   V. Asgeirsson, H. Jonsson                     : NEB implementation
   FAccTs GmbH                                   : IRC, NEB, NEB-TS, DLPNO-Multilevel, CI-OPT
                                                   MM, QMMM, 2- and 3-layer-ONIOM, Crystal-QMMM,
                                                   LR-CPCM, SF, NACMEs, symmetry and pop. for TD-DFT,
                                                   nearIR, NL-DFT gradient (VV10), updates on ESD,
                                                   ML-optimized integration grids, MBIS, APM,
                                                   GOAT, DOCKER, SOLVATOR, interface openCOSMO-RS
   S Lehtola, MJT Oliveira, MAL Marques          : LibXC Library
   Liviu Ungur et al                             : ANISO software


 Your calculation uses the libint2 library for the computation of 2-el integrals
 For citations please refer to: http://libint.valeyev.net

 Your ORCA version has been built with support for libXC version: 6.2.2
 For citations please refer to: https://libxc.gitlab.io

 This ORCA versions uses:
   CBLAS   interface :  Fast vector & matrix operations
   LAPACKE interface :  Fast linear algebra routines
   SCALAPACK package :  Parallel linear algebra routines
   Shared memory     :  Shared parallel matrices
   BLAS/LAPACK       :  OpenBLAS 0.3.27  USE64BITINT DYNAMIC_ARCH NO_AFFINITY Zen SINGLE_THREADED
        Core in use  :  Zen
   Copyright (c) 2011-2014, The OpenBLAS Project


NOTE: MaxCore=2000 MB was set to SCF,MP2,MDCI,CIPSI,MRCI and CIS
      => If you want to overwrite this, your respective input block should be placed after the MaxCore statement


***************************************
The coordinates will be read from file: decanol_c000.xyz
***************************************


Warning: RI is on but no J-basis has been assigned. Assigning Def2/J (nothing to worry about!)
================================================================================

----- Orbital basis set information -----
Your calculation utilizes the basis: def2-TZVP
   F. Weigend and R. Ahlrichs, Phys. Chem. Chem. Phys. 7, 3297 (2005).

----- AuxJ basis set information -----
Your calculation utilizes the auxiliary basis: def2/J
   F. Weigend, Phys. Chem. Chem. Phys. 8, 1057 (2006).

================================================================================
                                        WARNINGS
                       Please study these warnings very carefully!
================================================================================


WARNING: Geometry Optimization
  ===> : Switching off AutoStart
         For restart on a previous wavefunction, please use MOREAD



***************************************
The coordinates will be read from file: geo_opt_tzvp.xyz
***************************************


Warning: RI is on but no J-basis has been assigned. Assigning Def2/J (nothing to worry about!)
================================================================================

----- Orbital basis set information -----
Your calculation utilizes the basis: def2-TZVPD
   F. Weigend and R. Ahlrichs, Phys. Chem. Chem. Phys. 7, 3297 (2005).
   D. Rappoport and F. Furche, J. Chem. Phys. 133, 134105 (2010)
   D. Rappoport, J. Chem. Phys. 155, 124102 (2021).

----- AuxJ basis set information -----
Your calculation utilizes the auxiliary basis: def2/J
   F. Weigend, Phys. Chem. Chem. Phys. 8, 1057 (2006).

================================================================================
                                        WARNINGS
                       Please study these warnings very carefully!
================================================================================


================================================================================
                                       INPUT FILE
================================================================================
NAME = input.dat
|  1> %MaxCore 2000
|  2> 
|  3> %base "geo_opt_tzvp"
|  4> 
|  5> %cpcm
|  6> radius[1]  1.3
|  7> radius[2]  1.601
|  8> radius[5]  2.048
|  9> radius[6]  2.0
| 10> radius[7]  1.83
| 11> radius[8]  1.72
| 12> radius[9]  1.72
| 13> radius[10]  1.771
| 14> radius[13]  2.152
| 15> radius[14]  2.2
| 16> radius[15]  2.106
| 17> radius[16]  2.16
| 18> radius[17]  2.05
| 19> radius[18]  2.184
| 20> radius[22]  2.261
| 21> radius[26]  2.195
| 22> radius[27]  2.153
| 23> radius[31]  2.172
| 24> radius[32]  2.7
| 25> radius[33]  2.148
| 26> radius[34]  2.2
| 27> radius[35]  2.16
| 28> radius[36]  2.354
| 29> radius[49]  2.245
| 30> radius[50]  2.55
| 31> radius[51]  2.402
| 32> radius[53]  2.32
| 33> radius[54]  2.524
| 34> radius[80]  1.978
| 35> radius[82]  2.36
| 36> radius[86]  2.573
| 37> cut_area 0.03571064825863687
| 38> end
| 39> 
| 40> ! OPT CPCM BP86 def2-TZVP PAL16
| 41> 
| 42> * xyzfile 0 1 decanol_c000.xyz
| 43> 
| 44> $new_job
| 45> 
| 46> ! CPCM BP86 def2-TZVPD SP PAL16
| 47> 
| 48> %base "single_point_tzvpd"
| 49> 
| 50> * xyzfile 0 1 geo_opt_tzvp.xyz
| 51> 
| 52>                          ****END OF INPUT****
================================================================================


                 $$$$$$$$$$$$$$$$$$$$$$$$$$$$$$$$$$$$$$$$$$$$$$ 
                 $ THERE ARE  2 JOBS TO BE PROCESSED THIS RUN $
                 $$$$$$$$$$$$$$$$$$$$$$$$$$$$$$$$$$$$$$$$$$$$$$ 




                 $$$$$$$$$$$$$$$$  JOB NUMBER  1 $$$$$$$$$$$$$$


                       *****************************
                       * Geometry Optimization Run *
                       *****************************

Geometry optimization settings:
Update method            Update   .... BFGS
Choice of coordinates    CoordSys .... (2022) Redundant Internals
Initial Hessian          InHess   .... Almloef's Model
Max. no of cycles        MaxIter  .... 99

Convergence Tolerances:
Energy Change            TolE     ....  5.0000e-06 Eh
Max. Gradient            TolMAXG  ....  3.0000e-04 Eh/bohr
RMS Gradient             TolRMSG  ....  1.0000e-04 Eh/bohr
Max. Displacement        TolMAXD  ....  4.0000e-03 bohr
RMS Displacement         TolRMSD  ....  2.0000e-03 bohr
Strict Convergence                .... False

------------------------------------------------------------------------------
                        ORCA OPTIMIZATION COORDINATE SETUP
------------------------------------------------------------------------------

The optimization will be done in redundant internal coordinates (2022)
Making redundant internal coordinates   ...  (2022 redundants) done
Evaluating the initial hessian          ...  (Almloef) done
Evaluating the coordinates              ...  done
Calculating the B-matrix                .... done
Calculating the G-matrix                .... done
Diagonalizing the G-matrix              .... done
Small eigenvalue found = 2.192e-03
Small eigenvalue found = 1.072e-02
Small eigenvalue found = 1.333e-02
Small eigenvalue found = 2.194e-02
Small eigenvalue found = 2.819e-02
The first mode is                       ....   57
The number of degrees of freedom        ....   93

    -----------------------------------------------------------------
                    Redundant Internal Coordinates


    -----------------------------------------------------------------
         Definition                    Initial Value    Approx d2E/dq
    -----------------------------------------------------------------
      1. B(C   1,C   0)                  1.5323         0.370472   
      2. B(C   2,C   1)                  1.5335         0.368763   
      3. B(C   3,C   2)                  1.5333         0.369032   
      4. B(C   4,C   3)                  1.5335         0.368809   
      5. B(C   5,C   4)                  1.5335         0.368757   
      6. B(C   6,C   5)                  1.5333         0.369025   
      7. B(C   7,C   6)                  1.5337         0.368573   
      8. B(C   8,C   7)                  1.5343         0.367752   
      9. B(C   9,C   8)                  1.5265         0.378419   
     10. B(O  10,C   9)                  1.4457         0.455989   
     11. B(H  11,C   0)                  1.1012         0.345590   
     12. B(H  12,C   0)                  1.1012         0.345571   
     13. B(H  13,C   0)                  1.1002         0.346879   
     14. B(H  14,C   1)                  1.1036         0.342506   
     15. B(H  15,C   1)                  1.1037         0.342451   
     16. B(H  16,C   2)                  1.1048         0.341039   
     17. B(H  17,C   2)                  1.1048         0.341102   
     18. B(H  18,C   3)                  1.1047         0.341194   
     19. B(H  19,C   3)                  1.1046         0.341277   
     20. B(H  20,C   4)                  1.1046         0.341327   
     21. B(H  21,C   4)                  1.1046         0.341248   
     22. B(H  22,C   5)                  1.1046         0.341279   
     23. B(H  23,C   5)                  1.1045         0.341363   
     24. B(H  24,C   6)                  1.1044         0.341538   
     25. B(H  25,C   6)                  1.1043         0.341632   
     26. B(H  26,C   7)                  1.1041         0.341928   
     27. B(H  27,C   7)                  1.1042         0.341769   
     28. B(H  28,C   8)                  1.1045         0.341453   
     29. B(H  29,C   8)                  1.1031         0.343205   
     30. B(H  30,C   9)                  1.1053         0.340452   
     31. B(H  31,C   9)                  1.1004         0.346601   
     32. B(H  32,O  10)                  0.9753         0.491558   
     33. A(C   1,C   0,H  13)          111.5475         0.321895   
     34. A(H  11,C   0,H  12)          107.5691         0.287114   
     35. A(C   1,C   0,H  11)          111.0410         0.321699   
     36. A(C   1,C   0,H  12)          111.0608         0.321696   
     37. A(H  11,C   0,H  13)          107.7229         0.287283   
     38. A(H  12,C   0,H  13)          107.7197         0.287281   
     39. A(H  14,C   1,H  15)          106.1076         0.286307   
     40. A(C   0,C   1,C   2)          113.2065         0.362032   
     41. A(C   2,C   1,H  14)          109.1330         0.320984   
     42. A(C   2,C   1,H  15)          109.1148         0.320976   
     43. A(C   0,C   1,H  15)          109.5053         0.321219   
     44. A(C   0,C   1,H  14)          109.5263         0.321227   
     45. A(C   3,C   2,H  16)          109.2437         0.320797   
     46. A(C   1,C   2,H  17)          109.1484         0.320769   
     47. A(C   1,C   2,H  16)          109.1601         0.320759   
     48. A(C   3,C   2,H  17)          109.2464         0.320807   
     49. A(H  16,C   2,H  17)          106.1015         0.285939   
     50. A(C   1,C   2,C   3)          113.6645         0.361791   
     51. A(C   4,C   3,H  18)          109.2166         0.320789   
     52. A(C   2,C   3,H  19)          109.1992         0.320834   
     53. A(C   2,C   3,C   4)          113.6151         0.361799   
     54. A(C   2,C   3,H  18)          109.1867         0.320821   
     55. A(H  18,C   3,H  19)          106.1251         0.285982   
     56. A(C   4,C   3,H  19)          109.2269         0.320802   
     57. A(C   3,C   4,H  20)          109.2250         0.320810   
     58. A(C   3,C   4,C   5)          113.5949         0.361753   
     59. A(C   5,C   4,H  21)          109.1958         0.320790   
     60. A(C   3,C   4,H  21)          109.2298         0.320798   
     61. A(C   5,C   4,H  20)          109.1968         0.320802   
     62. A(H  20,C   4,H  21)          106.1290         0.285996   
     63. A(C   4,C   5,C   6)          113.5788         0.361789   
     64. A(H  22,C   5,H  23)          106.1415         0.286005   
     65. A(C   4,C   5,H  23)          109.2145         0.320808   
     66. A(C   6,C   5,H  22)          109.2156         0.320833   
     67. A(C   4,C   5,H  22)          109.1994         0.320795   
     68. A(C   6,C   5,H  23)          109.2234         0.320846   
     69. A(C   5,C   6,C   7)          113.4506         0.361758   
     70. A(H  24,C   6,H  25)          106.1873         0.286074   
     71. A(C   7,C   6,H  25)          109.1943         0.320823   
     72. A(C   5,C   6,H  25)          109.2780         0.320887   
     73. A(C   7,C   6,H  24)          109.1865         0.320809   
     74. A(C   5,C   6,H  24)          109.2880         0.320873   
     75. A(C   6,C   7,C   8)          113.3331         0.361545   
     76. A(H  26,C   7,H  27)          106.2492         0.286143   
     77. A(C   8,C   7,H  27)          109.2760         0.320727   
     78. A(C   6,C   7,H  27)          109.1814         0.320844   
     79. A(C   8,C   7,H  26)          109.3526         0.320751   
     80. A(C   6,C   7,H  26)          109.2040         0.320869   
     81. A(C   9,C   8,H  29)          108.9248         0.322453   
     82. A(C   7,C   8,H  29)          109.9077         0.320947   
     83. A(C   9,C   8,H  28)          108.8450         0.322183   
     84. A(C   7,C   8,H  28)          109.5457         0.320679   
     85. A(C   7,C   8,C   9)          112.5516         0.363176   
     86. A(H  28,C   8,H  29)          106.8993         0.286268   
     87. A(H  30,C   9,H  31)          107.6655         0.286576   
     88. A(O  10,C   9,H  31)          105.3054         0.331052   
     89. A(C   8,C   9,H  31)          110.3872         0.322974   
     90. A(O  10,C   9,H  30)          110.0600         0.330073   
     91. A(C   8,C   9,H  30)          110.0766         0.322028   
     92. A(C   8,C   9,O  10)          113.1180         0.374483   
     93. A(C   9,O  10,H  32)          106.9647         0.347918   
     94. D(H  14,C   1,C   0,H  11)    178.2116         0.010970   
     95. D(C   2,C   1,C   0,H  13)   -179.9245         0.010970   
     96. D(H  14,C   1,C   0,H  12)    -62.1379         0.010970   
     97. D(C   2,C   1,C   0,H  11)    -59.7544         0.010970   
     98. D(H  14,C   1,C   0,H  13)     58.0416         0.010970   
     99. D(C   2,C   1,C   0,H  12)     59.8960         0.010970   
    100. D(H  16,C   2,C   1,C   0)    -57.7239         0.010875   
    101. D(H  16,C   2,C   1,H  15)   -179.9372         0.010875   
    102. D(C   3,C   2,C   1,H  14)    -57.6932         0.010875   
    103. D(H  16,C   2,C   1,H  14)     64.5296         0.010875   
    104. D(C   3,C   2,C   1,C   0)   -179.9467         0.010875   
    105. D(C   3,C   2,C   1,H  15)     57.8400         0.010875   
    106. D(C   4,C   3,C   2,H  16)     57.9244         0.010890   
    107. D(C   4,C   3,C   2,H  17)    -57.7354         0.010890   
    108. D(C   4,C   3,C   2,C   1)   -179.8990         0.010890   
    109. D(H  18,C   3,C   2,H  16)   -179.9020         0.010890   
    110. D(H  18,C   3,C   2,H  17)     64.4382         0.010890   
    111. D(H  18,C   3,C   2,C   1)    -57.7254         0.010890   
    112. D(H  20,C   4,C   3,H  19)   -179.9876         0.010878   
    113. D(H  20,C   4,C   3,H  18)    -64.3254         0.010878   
    114. D(H  20,C   4,C   3,C   2)     57.8316         0.010878   
    115. D(C   5,C   4,C   3,H  18)     57.8370         0.010878   
    116. D(C   5,C   4,C   3,C   2)    179.9940         0.010878   
    117. D(C   5,C   4,C   3,H  19)    -57.8252         0.010878   
    118. D(H  22,C   5,C   4,H  21)    179.9853         0.010875   
    119. D(H  22,C   5,C   4,H  20)     64.3467         0.010875   
    120. D(H  22,C   5,C   4,C   3)    -57.8313         0.010875   
    121. D(C   6,C   5,C   4,H  20)    -57.8100         0.010875   
    122. D(C   6,C   5,C   4,C   3)   -179.9880         0.010875   
    123. D(C   6,C   5,C   4,H  21)     57.8286         0.010875   
    124. D(C   7,C   6,C   5,C   4)    179.8848         0.010890   
    125. D(H  24,C   6,C   5,H  23)     64.1541         0.010890   
    126. D(H  24,C   6,C   5,H  22)    179.8334         0.010890   
    127. D(H  24,C   6,C   5,C   4)    -58.0189         0.010890   
    128. D(C   7,C   6,C   5,H  23)    -57.9422         0.010890   
    129. D(C   7,C   6,C   5,H  22)     57.7371         0.010890   
    130. D(H  26,C   7,C   6,H  25)    179.9787         0.010865   
    131. D(H  26,C   7,C   6,H  24)    -64.3196         0.010865   
    132. D(H  26,C   7,C   6,C   5)     57.8332         0.010865   
    133. D(C   8,C   7,C   6,H  25)    -57.8530         0.010865   
    134. D(C   8,C   7,C   6,H  24)     57.8487         0.010865   
    135. D(C   8,C   7,C   6,C   5)   -179.9985         0.010865   
    136. D(H  28,C   8,C   7,H  27)    179.2875         0.010819   
    137. D(H  28,C   8,C   7,H  26)     63.3738         0.010819   
    138. D(H  28,C   8,C   7,C   6)    -58.7118         0.010819   
    139. D(C   9,C   8,C   7,H  27)     58.0513         0.010819   
    140. D(C   9,C   8,C   7,H  26)    -57.8624         0.010819   
    141. D(C   9,C   8,C   7,C   6)   -179.9480         0.010819   
    142. D(H  30,C   9,C   8,H  29)    179.8257         0.011418   
    143. D(H  30,C   9,C   8,H  28)    -63.9603         0.011418   
    144. D(H  30,C   9,C   8,C   7)     57.6750         0.011418   
    145. D(O  10,C   9,C   8,H  29)    -56.5937         0.011418   
    146. D(O  10,C   9,C   8,H  28)     59.6203         0.011418   
    147. D(O  10,C   9,C   8,C   7)   -178.7444         0.011418   
    148. D(H  32,O  10,C   9,H  31)    177.6511         0.016378   
    149. D(H  32,O  10,C   9,H  30)     61.8740         0.016378   
    150. D(H  32,O  10,C   9,C   8)    -61.7157         0.016378   
    -----------------------------------------------------------------

Number of atoms                         .... 33
Number of degrees of freedom            .... 150


         *************************************************************
         *                GEOMETRY OPTIMIZATION CYCLE   1            *
         *************************************************************
---------------------------------
CARTESIAN COORDINATES (ANGSTROEM)
---------------------------------
  C     -5.936964    0.743592   -0.576595
  C     -4.720488   -0.173738   -0.413672
  C     -3.388436    0.585954   -0.398942
  C     -2.163663   -0.322349   -0.237640
  C     -0.832448    0.438693   -0.220594
  C      0.392155   -0.470149   -0.059107
  C      1.723000    0.291212   -0.041817
  C      2.945472   -0.620198    0.122612
  C      4.275579    0.144348    0.139596
  C      5.479802   -0.779466    0.302681
  O      6.738066   -0.069005    0.349237
  H     -5.994231    1.474058    0.245458
  H     -5.882931    1.308662   -1.520227
  H     -6.876636    0.171416   -0.582264
  H     -4.705215   -0.914861   -1.231300
  H     -4.817340   -0.751606    0.521634
  H     -3.291223    1.165602   -1.334436
  H     -3.402831    1.326808    0.420453
  H     -2.262670   -0.902740    0.697059
  H     -2.149362   -1.061967   -1.057966
  H     -0.846698    1.178119    0.599851
  H     -0.733231    1.019170   -1.155166
  H      0.293127   -1.050450    0.875566
  H      0.406809   -1.209552   -0.879527
  H      1.824618    0.869520   -0.977203
  H      1.709034    1.031291    0.777717
  H      2.959383   -1.360436   -0.696460
  H      2.844628   -1.197073    1.058749
  H      4.386942    0.713021   -0.800654
  H      4.275346    0.880259    0.961315
  H      5.496820   -1.527783   -0.510560
  H      5.418466   -1.324427    1.256692
  H      6.835120    0.394077   -0.503596

----------------------------
CARTESIAN COORDINATES (A.U.)
----------------------------
  NO LB      ZA    FRAG     MASS         X           Y           Z
   0 C     6.0000    0    12.011  -11.219236    1.405185   -1.089607
   1 C     6.0000    0    12.011   -8.920429   -0.328318   -0.781726
   2 C     6.0000    0    12.011   -6.403216    1.107292   -0.753891
   3 C     6.0000    0    12.011   -4.088730   -0.609151   -0.449075
   4 C     6.0000    0    12.011   -1.573099    0.829009   -0.416863
   5 C     6.0000    0    12.011    0.741066   -0.888453   -0.111696
   6 C     6.0000    0    12.011    3.255999    0.550311   -0.079022
   7 C     6.0000    0    12.011    5.566135   -1.172004    0.231704
   8 C     6.0000    0    12.011    8.079674    0.272777    0.263799
   9 C     6.0000    0    12.011   10.355326   -1.472977    0.571985
  10 O     8.0000    0    15.999   12.733099   -0.130401    0.659962
  11 H     1.0000    0     1.008  -11.327455    2.785566    0.463849
  12 H     1.0000    0     1.008  -11.117128    2.473012   -2.872813
  13 H     1.0000    0     1.008  -12.994959    0.323929   -1.100319
  14 H     1.0000    0     1.008   -8.891568   -1.728836   -2.326819
  15 H     1.0000    0     1.008   -9.103453   -1.420330    0.985746
  16 H     1.0000    0     1.008   -6.219510    2.202669   -2.521718
  17 H     1.0000    0     1.008   -6.430418    2.507304    0.794542
  18 H     1.0000    0     1.008   -4.275828   -1.705931    1.317250
  19 H     1.0000    0     1.008   -4.061706   -2.006826   -1.999266
  20 H     1.0000    0     1.008   -1.600027    2.226322    1.133554
  21 H     1.0000    0     1.008   -1.385606    1.925952   -2.182948
  22 H     1.0000    0     1.008    0.553929   -1.985064    1.654580
  23 H     1.0000    0     1.008    0.768758   -2.285722   -1.662065
  24 H     1.0000    0     1.008    3.448029    1.643155   -1.846645
  25 H     1.0000    0     1.008    3.229605    1.948858    1.469672
  26 H     1.0000    0     1.008    5.592423   -2.570852   -1.316119
  27 H     1.0000    0     1.008    5.375568   -2.262140    2.000746
  28 H     1.0000    0     1.008    8.290118    1.347414   -1.513017
  29 H     1.0000    0     1.008    8.079234    1.663448    1.816623
  30 H     1.0000    0     1.008   10.387485   -2.887091   -0.964818
  31 H     1.0000    0     1.008   10.239416   -2.502805    2.374803
  32 H     1.0000    0     1.008   12.916504    0.744697   -0.951658

--------------------------------
INTERNAL COORDINATES (ANGSTROEM)
--------------------------------
 C      0   0   0     0.000000000000     0.00000000     0.00000000
 C      1   0   0     1.532270325945     0.00000000     0.00000000
 C      2   1   0     1.533528957228   113.20646060     0.00000000
 C      3   2   1     1.533330295672   113.66447493   180.05331654
 C      4   3   2     1.533494707496   113.61508002   180.10104730
 C      5   4   3     1.533533684828   113.59492543   179.99399454
 C      6   5   4     1.533335438051   113.57883195   180.01203188
 C      7   6   5     1.533669143947   113.45062812   179.88477067
 C      8   7   6     1.534276508404   113.33314255   180.00146012
 C      9   8   7     1.526493024250   112.55164863   180.05199235
 O     10   9   8     1.445734609178   113.11804045   181.25563207
 H      1   2   3     1.101195986157   111.04096691   300.24557211
 H      1   2   3     1.101210715836   111.06083323    59.89601300
 H      1   2   3     1.100182415929   111.54746691   180.07552601
 H      2   1   3     1.103635619374   109.52630115   237.96606474
 H      2   1   3     1.103679471868   109.50532210   121.99520748
 H      3   2   1     1.104803925740   109.16011918   302.27614971
 H      3   2   1     1.104753849626   109.14842685    57.83553532
 H      4   3   2     1.104680394344   109.18672778   302.27461140
 H      4   3   2     1.104614352548   109.19919492    57.90493045
 H      5   4   3     1.104574423250   109.22495786    57.83159551
 H      5   4   3     1.104636994096   109.22975149   302.15858568
 H      6   5   4     1.104613005511   109.19935372   302.16873959
 H      6   5   4     1.104545802353   109.21448463    57.83407508
 H      7   6   5     1.104406385377   109.28798862   301.98109432
 H      7   6   5     1.104331243303   109.27799982    57.78573891
 H      8   7   6     1.104095224161   109.20400504    57.83315439
 H      8   7   6     1.104222371264   109.18135542   302.05486883
 H      9   8   7     1.104473562392   109.54566735   301.28820157
 H      9   8   7     1.103080998259   109.90772928    58.45858771
 H     10   9   8     1.105273102961   110.07655337    57.67500621
 H     10   9   8     1.100400554775   110.38723670   298.95608594
 H     11  10   9     0.975288609363   106.96474245   298.28430962

---------------------------
INTERNAL COORDINATES (A.U.)
---------------------------
 C      0   0   0     0.000000000000     0.00000000     0.00000000
 C      1   0   0     2.895571279170     0.00000000     0.00000000
 C      2   1   0     2.897949747599   113.20646060     0.00000000
 C      3   2   1     2.897574331665   113.66447493   180.05331654
 C      4   3   2     2.897885024986   113.61508002   180.10104730
 C      5   4   3     2.897958681468   113.59492543   179.99399454
 C      6   5   4     2.897584049353   113.57883195   180.01203188
 C      7   6   5     2.898214662106   113.45062812   179.88477067
 C      8   7   6     2.899362414593   113.33314255   180.00146012
 C      9   8   7     2.884653761174   112.55164863   180.05199235
 O     10   9   8     2.732042473678   113.11804045   181.25563207
 H      1   2   3     2.080958833610   111.04096691   300.24557211
 H      1   2   3     2.080986668669   111.06083323    59.89601300
 H      1   2   3     2.079043463461   111.54746691   180.07552601
 H      2   1   3     2.085569072257   109.52630115   237.96606474
 H      2   1   3     2.085651941461   109.50532210   121.99520748
 H      3   2   1     2.087776851329   109.16011918   302.27614971
 H      3   2   1     2.087682221188   109.14842685    57.83553532
 H      4   3   2     2.087543410823   109.18672778   302.27461140
 H      4   3   2     2.087418609914   109.19919492    57.90493045
 H      5   4   3     2.087343154477   109.22495786    57.83159551
 H      5   4   3     2.087461396239   109.22975149   302.15858568
 H      6   5   4     2.087416064384   109.19935372   302.16873959
 H      6   5   4     2.087289068819   109.21448463    57.83407508
 H      7   6   5     2.087025608917   109.28798862   301.98109432
 H      7   6   5     2.086883610975   109.27799982    57.78573891
 H      8   7   6     2.086437599435   109.20400504    57.83315439
 H      8   7   6     2.086677872638   109.18135542   302.05486883
 H      9   8   7     2.087152555078   109.54566735   301.28820157
 H      9   8   7     2.084520990241   109.90772928    58.45858771
 H     10   9   8     2.088663467786   110.07655337    57.67500621
 H     10   9   8     2.079455686139   110.38723670   298.95608594
 H     11  10   9     1.843028373229   106.96474245   298.28430962

---------------------
BASIS SET INFORMATION
---------------------
There are 3 groups of distinct atoms

 Group   1 Type C   : 11s6p2d1f contracted to 5s3p2d1f pattern {62111/411/11/1}
 Group   2 Type O   : 11s6p2d1f contracted to 5s3p2d1f pattern {62111/411/11/1}
 Group   3 Type H   : 5s1p contracted to 3s1p pattern {311/1}

Atom   0C    basis set group =>   1
Atom   1C    basis set group =>   1
Atom   2C    basis set group =>   1
Atom   3C    basis set group =>   1
Atom   4C    basis set group =>   1
Atom   5C    basis set group =>   1
Atom   6C    basis set group =>   1
Atom   7C    basis set group =>   1
Atom   8C    basis set group =>   1
Atom   9C    basis set group =>   1
Atom  10O    basis set group =>   2
Atom  11H    basis set group =>   3
Atom  12H    basis set group =>   3
Atom  13H    basis set group =>   3
Atom  14H    basis set group =>   3
Atom  15H    basis set group =>   3
Atom  16H    basis set group =>   3
Atom  17H    basis set group =>   3
Atom  18H    basis set group =>   3
Atom  19H    basis set group =>   3
Atom  20H    basis set group =>   3
Atom  21H    basis set group =>   3
Atom  22H    basis set group =>   3
Atom  23H    basis set group =>   3
Atom  24H    basis set group =>   3
Atom  25H    basis set group =>   3
Atom  26H    basis set group =>   3
Atom  27H    basis set group =>   3
Atom  28H    basis set group =>   3
Atom  29H    basis set group =>   3
Atom  30H    basis set group =>   3
Atom  31H    basis set group =>   3
Atom  32H    basis set group =>   3
---------------------------------
AUXILIARY/J BASIS SET INFORMATION
---------------------------------
There are 3 groups of distinct atoms

 Group   1 Type C   : 12s5p4d2f1g contracted to 6s4p3d1f1g pattern {711111/2111/211/2/1}
 Group   2 Type O   : 12s5p4d2f1g contracted to 6s4p3d1f1g pattern {711111/2111/211/2/1}
 Group   3 Type H   : 5s2p1d contracted to 3s1p1d pattern {311/2/1}

Atom   0C    basis set group =>   1
Atom   1C    basis set group =>   1
Atom   2C    basis set group =>   1
Atom   3C    basis set group =>   1
Atom   4C    basis set group =>   1
Atom   5C    basis set group =>   1
Atom   6C    basis set group =>   1
Atom   7C    basis set group =>   1
Atom   8C    basis set group =>   1
Atom   9C    basis set group =>   1
Atom  10O    basis set group =>   2
Atom  11H    basis set group =>   3
Atom  12H    basis set group =>   3
Atom  13H    basis set group =>   3
Atom  14H    basis set group =>   3
Atom  15H    basis set group =>   3
Atom  16H    basis set group =>   3
Atom  17H    basis set group =>   3
Atom  18H    basis set group =>   3
Atom  19H    basis set group =>   3
Atom  20H    basis set group =>   3
Atom  21H    basis set group =>   3
Atom  22H    basis set group =>   3
Atom  23H    basis set group =>   3
Atom  24H    basis set group =>   3
Atom  25H    basis set group =>   3
Atom  26H    basis set group =>   3
Atom  27H    basis set group =>   3
Atom  28H    basis set group =>   3
Atom  29H    basis set group =>   3
Atom  30H    basis set group =>   3
Atom  31H    basis set group =>   3
Atom  32H    basis set group =>   3


           ************************************************************
           *        Program running with 16 parallel MPI-processes    *
           *              working on a common directory               *
           ************************************************************
------------------------------------------------------------------------------
                             ORCA STARTUP CALCULATIONS
                           -- RI-GTO INTEGRALS CHOSEN --
------------------------------------------------------------------------------
------------------------------------------------------------------------------
                   ___                                                        
                  /   \      - P O W E R E D   B Y -                         
                 /     \                                                     
                 |  |  |   _    _      __       _____    __    __             
                 |  |  |  | |  | |    /  \     |  _  \  |  |  /  |          
                  \  \/   | |  | |   /    \    | | | |  |  | /  /          
                 / \  \   | |__| |  /  /\  \   | |_| |  |  |/  /          
                |  |  |   |  __  | /  /__\  \  |    /   |      \           
                |  |  |   | |  | | |   __   |  |    \   |  |\   \          
                \     /   | |  | | |  |  |  |  | |\  \  |  | \   \       
                 \___/    |_|  |_| |__|  |__|  |_| \__\ |__|  \__/        
                                                                              
                      - O R C A' S   B I G   F R I E N D -                    
                                      &                                       
                       - I N T E G R A L  F E E D E R -                       
                                                                              
 v1 FN, 2020, v2 2021, v3 2022-2024                                           
------------------------------------------------------------------------------


----------------------
SHARK INTEGRAL PACKAGE
----------------------

Number of atoms                             ...     33
Number of basis functions                   ...    473
Number of shells                            ...    209
Maximum angular momentum                    ...      3
Integral batch strategy                     ... SHARK/LIBINT Hybrid
RI-J (if used) integral strategy            ... SPLIT-RIJ (Revised 2003 algorithm where possible)
Printlevel                                  ...      1
Contraction scheme used                     ... SEGMENTED contraction
Prescreening option                         ... SCHWARTZ
   Thresh                                   ... 2.500e-11
   Tcut                                     ... 2.500e-12
   Tpresel                                  ... 2.500e-12 
Coulomb Range Separation                    ... NOT USED
Exchange Range Separation                   ... NOT USED
Multipole approximations                    ... NOT USED
Finite Nucleus Model                        ... NOT USED
CABS basis                                  ... NOT available
Auxiliary Coulomb fitting basis             ... AVAILABLE
   # of basis functions in Aux-J            ...    781
   # of shells in Aux-J                     ...    275
   Maximum angular momentum in Aux-J        ...      4
Auxiliary J/K fitting basis                 ... NOT available
Auxiliary Correlation fitting basis         ... NOT available
Auxiliary 'external' fitting basis          ... NOT available

Checking pre-screening integrals            ... done (  0.0 sec) Dimension = 209
Check shell pair data                       ... done (  0.0 sec)
Shell pair information
Shell pair cut-off parameter TPreSel        ...   2.5e-12
Total number of shell pairs                 ...     21945
Shell pairs after pre-screening             ...     15102
Total number of primitive shell pairs       ...     62436
Primitive shell pairs kept                  ...     31246
          la=0 lb=0:   5145 shell pairs
          la=1 lb=0:   4635 shell pairs
          la=1 lb=1:   1079 shell pairs
          la=2 lb=0:   1801 shell pairs
          la=2 lb=1:    814 shell pairs
          la=2 lb=2:    166 shell pairs
          la=3 lb=0:    872 shell pairs
          la=3 lb=1:    392 shell pairs
          la=3 lb=2:    154 shell pairs
          la=3 lb=3:     44 shell pairs

Calculating one electron integrals          ... done (  0.0 sec)
Calculating RI/J V-Matrix + Cholesky decomp.... done (  0.0 sec)
Calculating Nuclear repulsion               ... done (  0.0 sec) ENN=    591.284118155531 Eh

Diagonalization of the overlap matrix:
Smallest eigenvalue                        ... 4.946e-05
Time for diagonalization                   ...    0.026 sec
Threshold for overlap eigenvalues          ... 1.000e-07
Number of eigenvalues below threshold      ... 0
Time for construction of square roots      ...    0.012 sec
Total time needed                          ...    0.041 sec

-------------------
DFT GRID GENERATION
-------------------

General Integration Accuracy     IntAcc      ... 4.388
Radial Grid Type                 RadialGrid  ... OptM3 with GC (2021)
Angular Grid (max. ang.)         AngularGrid ... 4 (Lebedev-302)
Angular grid pruning method      GridPruning ... 4 (adaptive)
Weight generation scheme         WeightScheme... mBecke (2022)
Basis function cutoff            BFCut       ... 1.0000e-11
Integration weight cutoff        WCut        ... 1.0000e-14
Partially contracted basis set               ... off
Rotationally invariant grid construction     ... off
Angular grids for H and He will be reduced by one unit

Total number of grid points                  ...   136319
Total number of batches                      ...     2154
Average number of points per batch           ...       63
Average number of grid points per atom       ...     4131
Initializing property integral containers    ... done (  0.0 sec)

SHARK setup successfully completed in   1.0 seconds

Maximum memory used throughout the entire STARTUP-calculation: 44.5 MB


           ************************************************************
           *        Program running with 16 parallel MPI-processes    *
           *              working on a common directory               *
           ************************************************************
-------------------------------------------------------------------------------
                                 ORCA GUESS
                   Start orbitals & Density for SCF / CASSCF
-------------------------------------------------------------------------------

------------
SCF SETTINGS
------------
Hamiltonian:
 Density Functional     Method          .... DFT(GTOs)
 Exchange Functional    Exchange        .... B88
   X-Alpha parameter    XAlpha          ....  0.666667
   Becke's b parameter  XBeta           ....  0.004200
 Correlation Functional Correlation     .... P86
 LDA part of GGA corr.  LDAOpt          .... PW91-LDA
 Gradients option       PostSCFGGA      .... off
   NL short-range parameter             ....  4.400000
 RI-approximation to the Coulomb term is turned on
   Number of AuxJ basis functions       .... 781


General Settings:
 Integral files         IntName         .... geo_opt_tzvp
 Hartree-Fock type      HFTyp           .... RHF
 Total Charge           Charge          ....    0
 Multiplicity           Mult            ....    1
 Number of Electrons    NEL             ....   90
 Basis Dimension        Dim             ....  473
 Nuclear Repulsion      ENuc            ....    591.2841181555 Eh

Convergence Acceleration:
 AO-DIIS                CNVDIIS         .... on
   Start iteration      DIISMaxIt       ....    12
   Startup error        DIISStart       ....  0.200000
   # of expansion vecs  DIISMaxEq       ....     5
   Bias factor          DIISBfac        ....   1.050
   Max. coefficient     DIISMaxC        ....  10.000
 MO-DIIS                CNVKDIIS        .... off
 Trust-Rad. Augm. Hess. CNVTRAH         .... auto
   Auto Start mean grad. ratio tolernc. ....  1.125000
   Auto Start start iteration           ....    50
   Auto Start num. interpolation iter.  ....    10
   Max. Number of Micro iterations      ....    24
   Max. Number of Macro iterations      .... Maxiter - #DIIS iter
   Number of Davidson start vectors     ....     2
   Converg. threshold    (grad. norm)   ....   1.000e-05
   Grad. Scal. Fac. for Micro threshold ....   0.100
   Minimum threshold for Micro iter.    ....   1.000e-02
   NR start threshold (gradient norm)   ....   1.000e-04
   Initial trust radius                 ....   0.400
   Minimum AH scaling param. (alpha)    ....   1.000
   Maximum AH scaling param. (alpha)    .... 1000.000
   Quad. conv. algorithm                .... NR
   White noise on init. David. guess    .... on
   Maximum white noise                  ....   0.010
   Pseudo random numbers                .... off
   Inactive MOs                         .... canonical
   Orbital update algorithm             .... Taylor
   Preconditioner                       .... Diag
   Full preconditioner red. dimension   ....   250
 SOSCF                  CNVSOSCF        .... on
   Start iteration      SOSCFMaxIt      ....   150
   Startup grad/error   SOSCFStart      ....  0.003300
   Hessian update       SOSCFHessUp     .... L-BFGS
 Level Shifting         CNVShift        .... on
   Level shift para.    LevelShift      ....    0.2500
   Turn off err/grad.   ShiftErr        ....    0.0010
 Zerner damping         CNVZerner       .... off
 Static damping         CNVDamp         .... on
   Fraction old density DampFac         ....    0.7000
   Max. Damping (<1)    DampMax         ....    0.9800
   Min. Damping (>=0)   DampMin         ....    0.0000
   Turn off err/grad.   DampErr         ....    0.1000

SCF Procedure:
 Maximum # iterations   MaxIter         ....   125
 SCF integral mode      SCFMode         .... Direct
   Integral package                     .... SHARK and LIBINT hybrid scheme
 Reset frequency        DirectResetFreq ....    20
 Integral Threshold     Thresh          ....  2.500e-11 Eh
 Primitive CutOff       TCut            ....  2.500e-12 Eh

Convergence Tolerance:
 Convergence Check Mode ConvCheckMode   .... Total+1el-Energy
 Convergence forced     ConvForced      .... 0
 Energy Change          TolE            ....  1.000e-08 Eh
 1-El. energy change                    ....  1.000e-05 Eh
 Orbital Gradient       TolG            ....  1.000e-05
 Orbital Rotation angle TolX            ....  1.000e-05
 DIIS Error             TolErr          ....  5.000e-07

------------------------------
INITIAL GUESS: MODEL POTENTIAL
------------------------------
Loading Hartree-Fock densities                     ... done
Calculating cut-offs                               ... done
Initializing the effective Hamiltonian             ... done
Setting up the integral package (SHARK)            ... done
Starting the Coulomb interaction                   ... done (   0.1 sec)
Making the grid                                    ... done (   0.2 sec)
Mapping shells                                     ... done
Starting the XC term evaluation                    ... done (   0.1 sec)
  promolecular density results
     # of electrons  =     90.005292870
     EX              =    -66.134749435
     EC              =     -3.201310348
     EX+EC           =    -69.336059784
Transforming the Hamiltonian                       ... done (   0.0 sec)
Diagonalizing the Hamiltonian                      ... done (   0.0 sec)
Back transforming the eigenvectors                 ... done (   0.0 sec)
Now organizing SCF variables                       ... done
                      ------------------
                      INITIAL GUESS DONE (   0.4 sec)
                      ------------------
             **** ENERGY FILE WAS UPDATED (geo_opt_tzvp.en.tmp) ****
Finished Guess after   1.2 sec
Maximum memory used throughout the entire GUESS-calculation: 29.0 MB


           ************************************************************
           *        Program running with 16 parallel MPI-processes    *
           *              working on a common directory               *
           ************************************************************

-------------------------------------------------------------------------------------------
                                      ORCA LEAN-SCF
                              memory conserving SCF solver
-------------------------------------------------------------------------------------------

--------------------
CPCM SOLVATION MODEL
--------------------
CPCM parameters:
  Epsilon                                         ...     INFINITY
  Refrac                                          ...       1.3300
  Rsolv                                           ...       1.3000
  Surface type                                    ... GAUSSIAN VDW
  Discretization scheme                           ... Constant charge density
    Threshold for H atoms                         ...       5.0000 (charges/Ang^2)
    Threshold for non-H atoms                     ...       5.0000 (charges/Ang^2)
  Epsilon function type                           ...         CPCM
Solvent:                                          ... CONDUCTOR
Radii:
  Scheme                                          ... Element-dependent radii
  Radius for C  used is    3.7795 Bohr (=   2.0000 Ang.)
  Radius for O  used is    3.2503 Bohr (=   1.7200 Ang.)
  Radius for H  used is    2.4566 Bohr (=   1.3000 Ang.)
Calculating surface                               ...        done! (  0.0s)
Cavity surface points                             ...         1922
Cavity Volume                                     ...    1543.7002
Cavity Surface-area                               ...     917.6169
Calculating surface distance matrix               ...        done! (  0.0s)
Performing Cholesky decomposition & store         ...        done! (  0.1s)
Overall time for CPCM initialization              ...                 0.1s

----------------------------------------D-I-I-S--------------------------------------------
Iteration    Energy (Eh)           Delta-E    RMSDP     MaxDP     DIISErr   Damp  Time(sec)
-------------------------------------------------------------------------------------------
               ***  Starting incremental Fock matrix formation  ***
    1    -469.3391800728554699     0.00e+00  1.43e-03  7.88e-02  2.50e-01  0.700   0.9
    2    -469.5250422041103775    -1.86e-01  1.10e-03  7.38e-02  9.00e-02  0.700   1.0
                               ***Turning on AO-DIIS***
    3    -469.5900498424111902    -6.50e-02  4.08e-04  2.55e-02  2.42e-02  0.700   0.9
    4    -469.6279362986185788    -3.79e-02  6.05e-04  3.90e-02  1.01e-02  0.000   0.9
    5    -469.7140030440248211    -8.61e-02  2.34e-04  1.67e-02  1.58e-02  0.000   0.9
                              *** Initializing SOSCF ***
---------------------------------------S-O-S-C-F--------------------------------------
Iteration    Energy (Eh)           Delta-E    RMSDP     MaxDP     MaxGrad    Time(sec)
--------------------------------------------------------------------------------------
    6    -469.7152731676753774    -1.27e-03  8.96e-05  4.06e-03  2.93e-03     1.0
               *** Restarting incremental Fock matrix formation ***
    7    -469.7153883426465200    -1.15e-04  9.78e-05  6.42e-03  3.66e-04     0.9
    8    -469.7153737435892253     1.46e-05  3.88e-05  3.39e-03  7.29e-04     0.8
    9    -469.7154018493226886    -2.81e-05  9.79e-06  2.52e-04  6.88e-05     0.8
   10    -469.7154014244647442     4.25e-07  4.29e-06  1.23e-04  1.04e-04     0.8
   11    -469.7154023836371834    -9.59e-07  9.59e-07  3.03e-05  8.14e-06     0.8
   12    -469.7154023867788055    -3.14e-09  3.34e-07  8.95e-06  3.88e-06     0.8
                 **** Energy Check signals convergence ****

               *****************************************************
               *                     SUCCESS                       *
               *           SCF CONVERGED AFTER  12 CYCLES          *
               *****************************************************

             **** ENERGY FILE WAS UPDATED (geo_opt_tzvp.en.tmp) ****

----------------
TOTAL SCF ENERGY
----------------

Total Energy       :       -469.71540238677881 Eh          -12781.60590 eV

Components:
Nuclear Repulsion  :        591.28411815553090 Eh           16089.65884 eV
Electronic Energy  :      -1060.98848488433396 Eh          -28870.96445 eV
One Electron Energy:      -1805.78104003200792 Eh          -49137.80022 eV
Two Electron Energy:        744.79255514767385 Eh           20266.83577 eV
CPCM Dielectric    :         -0.01103565797567 Eh              -0.30030 eV

Virial components:
Potential Energy   :       -936.87342935720358 Eh          -25493.62208 eV
Kinetic Energy     :        467.15802697042477 Eh           12712.01618 eV
Virial Ratio       :          2.00547432617810

DFT components:
N(Alpha)           :       45.000167258483 electrons
N(Beta)            :       45.000167258483 electrons
N(Total)           :       90.000334516965 electrons
E(X)               :      -67.955273546158 Eh       
E(C)               :       -3.184843021481 Eh       
E(XC)              :      -71.140116567640 Eh       

CPCM Solvation Model Properties:
Surface-charge          :         -0.04639785806337
Corrected charge        :         -0.00000000000000
Outlying charge corr.   :          0.00012662485138 Eh               0.00345 eV
Free-energy (cav+disp)  :  This term is not implemented in the current solvation scheme

---------------
SCF CONVERGENCE
---------------

  Last Energy change         ...    3.1416e-09  Tolerance :   1.0000e-08
  Last MAX-Density change    ...    8.9533e-06  Tolerance :   1.0000e-07
  Last RMS-Density change    ...    3.3430e-07  Tolerance :   5.0000e-09
  Last DIIS Error            ...    2.9295e-03  Tolerance :   5.0000e-07
  Last Orbital Gradient      ...    3.8784e-06  Tolerance :   1.0000e-05
  Last Orbital Rotation      ...    7.8820e-06  Tolerance :   1.0000e-05


----------------
ORBITAL ENERGIES
----------------

  NO   OCC          E(Eh)            E(eV) 
   0   2.0000     -18.767190      -510.6812 
   1   2.0000      -9.934550      -270.3329 
   2   2.0000      -9.887587      -269.0549 
   3   2.0000      -9.887033      -269.0399 
   4   2.0000      -9.885534      -268.9991 
   5   2.0000      -9.884797      -268.9790 
   6   2.0000      -9.883610      -268.9467 
   7   2.0000      -9.883390      -268.9407 
   8   2.0000      -9.883230      -268.9364 
   9   2.0000      -9.883091      -268.9326 
  10   2.0000      -9.879091      -268.8237 
  11   2.0000      -0.928179       -25.2570 
  12   2.0000      -0.735289       -20.0082 
  13   2.0000      -0.720484       -19.6054 
  14   2.0000      -0.695004       -18.9120 
  15   2.0000      -0.660761       -17.9802 
  16   2.0000      -0.620301       -16.8792 
  17   2.0000      -0.578426       -15.7398 
  18   2.0000      -0.542474       -14.7615 
  19   2.0000      -0.519281       -14.1304 
  20   2.0000      -0.512206       -13.9378 
  21   2.0000      -0.509322       -13.8594 
  22   2.0000      -0.451275       -12.2798 
  23   2.0000      -0.431142       -11.7320 
  24   2.0000      -0.418489       -11.3877 
  25   2.0000      -0.400956       -10.9106 
  26   2.0000      -0.388787       -10.5794 
  27   2.0000      -0.379717       -10.3326 
  28   2.0000      -0.375730       -10.2241 
  29   2.0000      -0.366260        -9.9664 
  30   2.0000      -0.352034        -9.5793 
  31   2.0000      -0.347521        -9.4565 
  32   2.0000      -0.328409        -8.9365 
  33   2.0000      -0.323438        -8.8012 
  34   2.0000      -0.313460        -8.5297 
  35   2.0000      -0.301152        -8.1948 
  36   2.0000      -0.299084        -8.1385 
  37   2.0000      -0.286667        -7.8006 
  38   2.0000      -0.285794        -7.7768 
  39   2.0000      -0.280510        -7.6331 
  40   2.0000      -0.279901        -7.6165 
  41   2.0000      -0.275543        -7.4979 
  42   2.0000      -0.274327        -7.4648 
  43   2.0000      -0.262386        -7.1399 
  44   2.0000      -0.230330        -6.2676 
  45   0.0000       0.022686         0.6173 
  46   0.0000       0.026864         0.7310 
  47   0.0000       0.033086         0.9003 
  48   0.0000       0.043766         1.1909 
  49   0.0000       0.050164         1.3650 
  50   0.0000       0.050353         1.3702 
  51   0.0000       0.062495         1.7006 
  52   0.0000       0.064095         1.7441 
  53   0.0000       0.065912         1.7936 
  54   0.0000       0.086697         2.3591 
  55   0.0000       0.090759         2.4697 
*Only the first 10 virtual orbitals were printed.

                    ********************************
                    * MULLIKEN POPULATION ANALYSIS *
                    ********************************

-----------------------
MULLIKEN ATOMIC CHARGES
-----------------------
   0 C :   -0.381608
   1 C :   -0.173425
   2 C :   -0.209630
   3 C :   -0.193758
   4 C :   -0.199666
   5 C :   -0.197477
   6 C :   -0.200995
   7 C :   -0.227433
   8 C :   -0.206586
   9 C :   -0.028245
  10 O :   -0.515822
  11 H :    0.119631
  12 H :    0.119665
  13 H :    0.128642
  14 H :    0.100094
  15 H :    0.100100
  16 H :    0.097792
  17 H :    0.097917
  18 H :    0.098080
  19 H :    0.098230
  20 H :    0.099023
  21 H :    0.098891
  22 H :    0.099304
  23 H :    0.099419
  24 H :    0.100864
  25 H :    0.100933
  26 H :    0.103485
  27 H :    0.104672
  28 H :    0.108007
  29 H :    0.099203
  30 H :    0.103973
  31 H :    0.115671
  32 H :    0.341050
Sum of atomic charges:    0.0000000

--------------------------------
MULLIKEN REDUCED ORBITAL CHARGES
--------------------------------
  0 C s       :     3.298379  s :     3.298379
      pz      :     1.049438  p :     3.032657
      px      :     0.978388
      py      :     1.004831
      dz2     :     0.002657  d :     0.047326
      dxz     :     0.006473
      dyz     :     0.015783
      dx2y2   :     0.015683
      dxy     :     0.006729
      f0      :     0.000332  f :     0.003247
      f+1     :     0.000032
      f-1     :     0.000920
      f+2     :    -0.000028
      f-2     :     0.000514
      f+3     :     0.000707
      f-3     :     0.000770

  1 C s       :     3.224701  s :     3.224701
      pz      :     1.005157  p :     2.851867
      px      :     0.893553
      py      :     0.953158
      dz2     :     0.004209  d :     0.091403
      dxz     :     0.016096
      dyz     :     0.024493
      dx2y2   :     0.030046
      dxy     :     0.016559
      f0      :     0.000621  f :     0.005454
      f+1     :     0.000154
      f-1     :     0.000922
      f+2     :     0.000102
      f-2     :     0.001056
      f+3     :     0.001650
      f-3     :     0.000950

  2 C s       :     3.232027  s :     3.232027
      pz      :     1.013228  p :     2.884896
      px      :     0.917999
      py      :     0.953668
      dz2     :     0.003426  d :     0.087289
      dxz     :     0.015802
      dyz     :     0.025225
      dx2y2   :     0.026846
      dxy     :     0.015991
      f0      :     0.000603  f :     0.005419
      f+1     :     0.000176
      f-1     :     0.000921
      f+2     :     0.000115
      f-2     :     0.001053
      f+3     :     0.001635
      f-3     :     0.000917

  3 C s       :     3.218659  s :     3.218659
      pz      :     1.012233  p :     2.882040
      px      :     0.915731
      py      :     0.954076
      dz2     :     0.003283  d :     0.087614
      dxz     :     0.015936
      dyz     :     0.025166
      dx2y2   :     0.027010
      dxy     :     0.016218
      f0      :     0.000605  f :     0.005446
      f+1     :     0.000175
      f-1     :     0.000923
      f+2     :     0.000122
      f-2     :     0.001054
      f+3     :     0.001646
      f-3     :     0.000922

  4 C s       :     3.223312  s :     3.223312
      pz      :     1.014017  p :     2.883402
      px      :     0.915401
      py      :     0.953983
      dz2     :     0.003256  d :     0.087505
      dxz     :     0.015942
      dyz     :     0.025064
      dx2y2   :     0.026953
      dxy     :     0.016290
      f0      :     0.000605  f :     0.005447
      f+1     :     0.000174
      f-1     :     0.000924
      f+2     :     0.000120
      f-2     :     0.001055
      f+3     :     0.001647
      f-3     :     0.000923

  5 C s       :     3.220083  s :     3.220083
      pz      :     1.014494  p :     2.884587
      px      :     0.915480
      py      :     0.954613
      dz2     :     0.003278  d :     0.087365
      dxz     :     0.015921
      dyz     :     0.025062
      dx2y2   :     0.026928
      dxy     :     0.016176
      f0      :     0.000605  f :     0.005443
      f+1     :     0.000174
      f-1     :     0.000924
      f+2     :     0.000120
      f-2     :     0.001055
      f+3     :     0.001641
      f-3     :     0.000923

  6 C s       :     3.221275  s :     3.221275
      pz      :     1.015466  p :     2.886316
      px      :     0.915132
      py      :     0.955718
      dz2     :     0.003358  d :     0.087945
      dxz     :     0.016031
      dyz     :     0.025194
      dx2y2   :     0.027028
      dxy     :     0.016333
      f0      :     0.000609  f :     0.005459
      f+1     :     0.000178
      f-1     :     0.000926
      f+2     :     0.000121
      f-2     :     0.001060
      f+3     :     0.001640
      f-3     :     0.000925

  7 C s       :     3.240085  s :     3.240085
      pz      :     1.015599  p :     2.895261
      px      :     0.921909
      py      :     0.957753
      dz2     :     0.003121  d :     0.086645
      dxz     :     0.015914
      dyz     :     0.025544
      dx2y2   :     0.026406
      dxy     :     0.015660
      f0      :     0.000607  f :     0.005442
      f+1     :     0.000183
      f-1     :     0.000929
      f+2     :     0.000122
      f-2     :     0.001052
      f+3     :     0.001638
      f-3     :     0.000910

  8 C s       :     3.215255  s :     3.215255
      pz      :     1.019204  p :     2.902495
      px      :     0.927612
      py      :     0.955679
      dz2     :     0.003443  d :     0.083444
      dxz     :     0.015524
      dyz     :     0.025628
      dx2y2   :     0.023027
      dxy     :     0.015822
      f0      :     0.000624  f :     0.005392
      f+1     :     0.000178
      f-1     :     0.000938
      f+2     :     0.000126
      f-2     :     0.001082
      f+3     :     0.001516
      f-3     :     0.000929

  9 C s       :     3.228634  s :     3.228634
      pz      :     1.056632  p :     2.680474
      px      :     0.725198
      py      :     0.898644
      dz2     :     0.007143  d :     0.110154
      dxz     :     0.022895
      dyz     :     0.023988
      dx2y2   :     0.036829
      dxy     :     0.019299
      f0      :     0.001036  f :     0.008984
      f+1     :     0.000389
      f-1     :     0.001097
      f+2     :     0.000230
      f-2     :     0.001505
      f+3     :     0.003080
      f-3     :     0.001648

 10 O s       :     3.800766  s :     3.800766
      pz      :     1.519660  p :     4.686599
      px      :     1.512007
      py      :     1.654932
      dz2     :     0.006736  d :     0.027025
      dxz     :     0.004112
      dyz     :     0.005895
      dx2y2   :     0.005447
      dxy     :     0.004835
      f0      :     0.000131  f :     0.001433
      f+1     :     0.000059
      f-1     :     0.000439
      f+2     :     0.000107
      f-2     :     0.000158
      f+3     :     0.000212
      f-3     :     0.000328

 11 H s       :     0.859711  s :     0.859711
      pz      :     0.008283  p :     0.020658
      px      :     0.004568
      py      :     0.007807

 12 H s       :     0.859681  s :     0.859681
      pz      :     0.009630  p :     0.020655
      px      :     0.004504
      py      :     0.006521

 13 H s       :     0.850489  s :     0.850489
      pz      :     0.004521  p :     0.020870
      px      :     0.010188
      py      :     0.006161

 14 H s       :     0.879008  s :     0.879008
      pz      :     0.008214  p :     0.020898
      px      :     0.004387
      py      :     0.008296

 15 H s       :     0.878999  s :     0.878999
      pz      :     0.009544  p :     0.020901
      px      :     0.004445
      py      :     0.006913

 16 H s       :     0.881362  s :     0.881362
      pz      :     0.009501  p :     0.020846
      px      :     0.004458
      py      :     0.006887

 17 H s       :     0.881238  s :     0.881238
      pz      :     0.008203  p :     0.020845
      px      :     0.004395
      py      :     0.008247

 18 H s       :     0.881034  s :     0.881034
      pz      :     0.009503  p :     0.020886
      px      :     0.004487
      py      :     0.006896

 19 H s       :     0.880887  s :     0.880887
      pz      :     0.008220  p :     0.020883
      px      :     0.004424
      py      :     0.008239

 20 H s       :     0.880093  s :     0.880093
      pz      :     0.008223  p :     0.020883
      px      :     0.004422
      py      :     0.008238

 21 H s       :     0.880224  s :     0.880224
      pz      :     0.009506  p :     0.020885
      px      :     0.004485
      py      :     0.006895

 22 H s       :     0.879811  s :     0.879811
      pz      :     0.009509  p :     0.020885
      px      :     0.004483
      py      :     0.006893

 23 H s       :     0.879698  s :     0.879698
      pz      :     0.008227  p :     0.020883
      px      :     0.004419
      py      :     0.008237

 24 H s       :     0.878256  s :     0.878256
      pz      :     0.009533  p :     0.020880
      px      :     0.004469
      py      :     0.006877

 25 H s       :     0.878187  s :     0.878187
      pz      :     0.008226  p :     0.020880
      px      :     0.004408
      py      :     0.008246

 26 H s       :     0.875571  s :     0.875571
      pz      :     0.008246  p :     0.020944
      px      :     0.004445
      py      :     0.008254

 27 H s       :     0.874419  s :     0.874419
      pz      :     0.009567  p :     0.020909
      px      :     0.004487
      py      :     0.006855

 28 H s       :     0.871145  s :     0.871145
      pz      :     0.009609  p :     0.020848
      px      :     0.004372
      py      :     0.006867

 29 H s       :     0.879873  s :     0.879873
      pz      :     0.008341  p :     0.020923
      px      :     0.004287
      py      :     0.008296

 30 H s       :     0.876235  s :     0.876235
      pz      :     0.008248  p :     0.019792
      px      :     0.003418
      py      :     0.008125

 31 H s       :     0.864227  s :     0.864227
      pz      :     0.010259  p :     0.020102
      px      :     0.003371
      py      :     0.006472

 32 H s       :     0.614218  s :     0.614218
      pz      :     0.017621  p :     0.044731
      px      :     0.011476
      py      :     0.015635



                     *******************************
                     * LOEWDIN POPULATION ANALYSIS *
                     *******************************

----------------------
LOEWDIN ATOMIC CHARGES
----------------------
   0 C :   -0.328284
   1 C :   -0.302653
   2 C :   -0.277713
   3 C :   -0.274978
   4 C :   -0.274527
   5 C :   -0.274292
   6 C :   -0.273465
   7 C :   -0.270085
   8 C :   -0.287333
   9 C :   -0.347904
  10 O :   -0.094449
  11 H :    0.121070
  12 H :    0.121050
  13 H :    0.121187
  14 H :    0.135398
  15 H :    0.135433
  16 H :    0.137292
  17 H :    0.137301
  18 H :    0.137591
  19 H :    0.137571
  20 H :    0.137657
  21 H :    0.137662
  22 H :    0.137888
  23 H :    0.137855
  24 H :    0.138353
  25 H :    0.138355
  26 H :    0.139384
  27 H :    0.139917
  28 H :    0.139436
  29 H :    0.137291
  30 H :    0.120202
  31 H :    0.129624
  32 H :    0.188165

-------------------------------
LOEWDIN REDUCED ORBITAL CHARGES
-------------------------------
  0 C s       :     2.844850  s :     2.844850
      pz      :     1.077063  p :     3.199834
      px      :     1.052543
      py      :     1.070229
      dz2     :     0.036197  d :     0.259281
      dxz     :     0.023982
      dyz     :     0.076461
      dx2y2   :     0.064066
      dxy     :     0.058575
      f0      :     0.002154  f :     0.024319
      f+1     :     0.002922
      f-1     :     0.003466
      f+2     :     0.003410
      f-2     :     0.002969
      f+3     :     0.004511
      f-3     :     0.004887

  1 C s       :     2.791648  s :     2.791648
      pz      :     1.030642  p :     3.073508
      px      :     1.014578
      py      :     1.028288
      dz2     :     0.042752  d :     0.399501
      dxz     :     0.056655
      dyz     :     0.105929
      dx2y2   :     0.103226
      dxy     :     0.090938
      f0      :     0.003936  f :     0.037996
      f+1     :     0.003505
      f-1     :     0.004062
      f+2     :     0.004740
      f-2     :     0.005603
      f+3     :     0.010110
      f-3     :     0.006039

  2 C s       :     2.788712  s :     2.788712
      pz      :     1.027998  p :     3.055062
      px      :     1.002972
      py      :     1.024092
      dz2     :     0.042501  d :     0.396190
      dxz     :     0.054979
      dyz     :     0.107348
      dx2y2   :     0.101482
      dxy     :     0.089879
      f0      :     0.003875  f :     0.037749
      f+1     :     0.003406
      f-1     :     0.004067
      f+2     :     0.004758
      f-2     :     0.005696
      f+3     :     0.009994
      f-3     :     0.005952

  3 C s       :     2.787413  s :     2.787413
      pz      :     1.028241  p :     3.054152
      px      :     1.001560
      py      :     1.024351
      dz2     :     0.042333  d :     0.395677
      dxz     :     0.055104
      dyz     :     0.107330
      dx2y2   :     0.101196
      dxy     :     0.089713
      f0      :     0.003872  f :     0.037736
      f+1     :     0.003413
      f-1     :     0.004074
      f+2     :     0.004751
      f-2     :     0.005690
      f+3     :     0.009974
      f-3     :     0.005963

  4 C s       :     2.787301  s :     2.787301
      pz      :     1.028325  p :     3.053697
      px      :     1.001118
      py      :     1.024254
      dz2     :     0.042316  d :     0.395798
      dxz     :     0.055124
      dyz     :     0.107410
      dx2y2   :     0.101168
      dxy     :     0.089781
      f0      :     0.003871  f :     0.037730
      f+1     :     0.003412
      f-1     :     0.004075
      f+2     :     0.004748
      f-2     :     0.005694
      f+3     :     0.009972
      f-3     :     0.005959

  5 C s       :     2.787247  s :     2.787247
      pz      :     1.028365  p :     3.053683
      px      :     1.001009
      py      :     1.024309
      dz2     :     0.042346  d :     0.395632
      dxz     :     0.055095
      dyz     :     0.107397
      dx2y2   :     0.101063
      dxy     :     0.089732
      f0      :     0.003875  f :     0.037730
      f+1     :     0.003415
      f-1     :     0.004074
      f+2     :     0.004746
      f-2     :     0.005696
      f+3     :     0.009955
      f-3     :     0.005969

  6 C s       :     2.787184  s :     2.787184
      pz      :     1.028879  p :     3.052656
      px      :     0.999987
      py      :     1.023791
      dz2     :     0.042452  d :     0.395867
      dxz     :     0.055181
      dyz     :     0.107219
      dx2y2   :     0.100917
      dxy     :     0.090098
      f0      :     0.003881  f :     0.037759
      f+1     :     0.003425
      f-1     :     0.004068
      f+2     :     0.004722
      f-2     :     0.005713
      f+3     :     0.009982
      f-3     :     0.005968

  7 C s       :     2.786231  s :     2.786231
      pz      :     1.030281  p :     3.052357
      px      :     0.996447
      py      :     1.025629
      dz2     :     0.042425  d :     0.393705
      dxz     :     0.054711
      dyz     :     0.106747
      dx2y2   :     0.100896
      dxy     :     0.088927
      f0      :     0.003877  f :     0.037791
      f+1     :     0.003418
      f-1     :     0.004043
      f+2     :     0.004695
      f-2     :     0.005692
      f+3     :     0.010046
      f-3     :     0.006021

  8 C s       :     2.795574  s :     2.795574
      pz      :     1.029541  p :     3.066610
      px      :     1.009726
      py      :     1.027344
      dz2     :     0.044298  d :     0.387724
      dxz     :     0.055848
      dyz     :     0.107113
      dx2y2   :     0.088177
      dxy     :     0.092288
      f0      :     0.004053  f :     0.037425
      f+1     :     0.003645
      f-1     :     0.004004
      f+2     :     0.004480
      f-2     :     0.006008
      f+3     :     0.009255
      f-3     :     0.005981

  9 C s       :     2.821089  s :     2.821089
      pz      :     1.069616  p :     2.940990
      px      :     0.877127
      py      :     0.994246
      dz2     :     0.058712  d :     0.520830
      dxz     :     0.072686
      dyz     :     0.116349
      dx2y2   :     0.146241
      dxy     :     0.126841
      f0      :     0.006632  f :     0.064995
      f+1     :     0.006808
      f-1     :     0.004671
      f+2     :     0.006156
      f-2     :     0.008370
      f+3     :     0.019048
      f-3     :     0.013310

 10 O s       :     3.392815  s :     3.392815
      pz      :     1.510929  p :     4.634385
      px      :     1.514266
      py      :     1.609190
      dz2     :     0.012042  d :     0.063169
      dxz     :     0.010427
      dyz     :     0.013299
      dx2y2   :     0.014017
      dxy     :     0.013384
      f0      :     0.000576  f :     0.004081
      f+1     :     0.000303
      f-1     :     0.000929
      f+2     :     0.000351
      f-2     :     0.000423
      f+3     :     0.000762
      f-3     :     0.000736

 11 H s       :     0.818788  s :     0.818788
      pz      :     0.025071  p :     0.060142
      px      :     0.012865
      py      :     0.022207

 12 H s       :     0.818809  s :     0.818809
      pz      :     0.028663  p :     0.060141
      px      :     0.012938
      py      :     0.018540

 13 H s       :     0.818524  s :     0.818524
      pz      :     0.013411  p :     0.060288
      px      :     0.027861
      py      :     0.019017

 14 H s       :     0.806909  s :     0.806909
      pz      :     0.024004  p :     0.057693
      px      :     0.012447
      py      :     0.021242

 15 H s       :     0.806882  s :     0.806882
      pz      :     0.027254  p :     0.057685
      px      :     0.012580
      py      :     0.017851

 16 H s       :     0.805029  s :     0.805029
      pz      :     0.027135  p :     0.057679
      px      :     0.012529
      py      :     0.018016

 17 H s       :     0.805012  s :     0.805012
      pz      :     0.023922  p :     0.057687
      px      :     0.012373
      py      :     0.021391

 18 H s       :     0.804742  s :     0.804742
      pz      :     0.027124  p :     0.057667
      px      :     0.012520
      py      :     0.018023

 19 H s       :     0.804751  s :     0.804751
      pz      :     0.023951  p :     0.057677
      px      :     0.012372
      py      :     0.021354

 20 H s       :     0.804665  s :     0.804665
      pz      :     0.023962  p :     0.057678
      px      :     0.012362
      py      :     0.021353

 21 H s       :     0.804669  s :     0.804669
      pz      :     0.027129  p :     0.057669
      px      :     0.012514
      py      :     0.018026

 22 H s       :     0.804432  s :     0.804432
      pz      :     0.027146  p :     0.057680
      px      :     0.012507
      py      :     0.018027

 23 H s       :     0.804454  s :     0.804454
      pz      :     0.023974  p :     0.057691
      px      :     0.012357
      py      :     0.021360

 24 H s       :     0.803940  s :     0.803940
      pz      :     0.027233  p :     0.057706
      px      :     0.012477
      py      :     0.017996

 25 H s       :     0.803929  s :     0.803929
      pz      :     0.023999  p :     0.057716
      px      :     0.012325
      py      :     0.021392

 26 H s       :     0.802680  s :     0.802680
      pz      :     0.024121  p :     0.057936
      px      :     0.012368
      py      :     0.021446

 27 H s       :     0.802232  s :     0.802232
      pz      :     0.027387  p :     0.057851
      px      :     0.012486
      py      :     0.017978

 28 H s       :     0.802616  s :     0.802616
      pz      :     0.027598  p :     0.057948
      px      :     0.012491
      py      :     0.017860

 29 H s       :     0.804587  s :     0.804587
      pz      :     0.024255  p :     0.058122
      px      :     0.012271
      py      :     0.021596

 30 H s       :     0.821889  s :     0.821889
      pz      :     0.025457  p :     0.057910
      px      :     0.009415
      py      :     0.023038

 31 H s       :     0.813380  s :     0.813380
      pz      :     0.030359  p :     0.056996
      px      :     0.009391
      py      :     0.017247

 32 H s       :     0.659041  s :     0.659041
      pz      :     0.074090  p :     0.152793
      px      :     0.031063
      py      :     0.047641



                      *****************************
                      * MAYER POPULATION ANALYSIS *
                      *****************************

  NA   - Mulliken gross atomic population
  ZA   - Total nuclear charge
  QA   - Mulliken gross atomic charge
  VA   - Mayer's total valence
  BVA  - Mayer's bonded valence
  FA   - Mayer's free valence

  ATOM       NA         ZA         QA         VA         BVA        FA
  0 C      6.3816     6.0000    -0.3816     3.8888     3.8888     0.0000
  1 C      6.1734     6.0000    -0.1734     3.8735     3.8735     0.0000
  2 C      6.2096     6.0000    -0.2096     3.9008     3.9008     0.0000
  3 C      6.1938     6.0000    -0.1938     3.9210     3.9210    -0.0000
[...]
      dxy     :     0.184107
      f0      :     0.003928  f :     0.039008
      f+1     :     0.003552
      f-1     :     0.004776
      f+2     :     0.004727
      f-2     :     0.005603
      f+3     :     0.009798
      f-3     :     0.006624

  5 C s       :     2.688242  s :     2.688242
      pz      :     0.924937  p :     2.743076
      px      :     0.901033
      py      :     0.917106
      dz2     :     0.077186  d :     0.765293
      dxz     :     0.125795
      dyz     :     0.187703
      dx2y2   :     0.190611
      dxy     :     0.183998
      f0      :     0.003934  f :     0.039005
      f+1     :     0.003554
      f-1     :     0.004774
      f+2     :     0.004724
      f-2     :     0.005607
      f+3     :     0.009777
      f-3     :     0.006635

  6 C s       :     2.687977  s :     2.687977
      pz      :     0.925694  p :     2.742420
      px      :     0.899855
      py      :     0.916871
      dz2     :     0.077333  d :     0.764955
      dxz     :     0.125713
      dyz     :     0.187183
      dx2y2   :     0.190597
      dxy     :     0.184129
      f0      :     0.003942  f :     0.039037
      f+1     :     0.003563
      f-1     :     0.004769
      f+2     :     0.004704
      f-2     :     0.005624
      f+3     :     0.009806
      f-3     :     0.006628

  7 C s       :     2.686216  s :     2.686216
      pz      :     0.927699  p :     2.743138
      px      :     0.896199
      py      :     0.919240
      dz2     :     0.077389  d :     0.761935
      dxz     :     0.125336
      dyz     :     0.186084
      dx2y2   :     0.189917
      dxy     :     0.183210
      f0      :     0.003943  f :     0.039030
      f+1     :     0.003554
      f-1     :     0.004747
      f+2     :     0.004678
      f-2     :     0.005605
      f+3     :     0.009819
      f-3     :     0.006684

  8 C s       :     2.691423  s :     2.691423
      pz      :     0.928628  p :     2.748508
      px      :     0.900233
      py      :     0.919647
      dz2     :     0.079548  d :     0.734766
      dxz     :     0.121805
      dyz     :     0.185172
      dx2y2   :     0.164522
      dxy     :     0.183719
      f0      :     0.004079  f :     0.038577
      f+1     :     0.003735
      f-1     :     0.004723
      f+2     :     0.004469
      f-2     :     0.005869
      f+3     :     0.009140
      f-3     :     0.006562

  9 C s       :     2.701806  s :     2.701806
      pz      :     0.951712  p :     2.642927
      px      :     0.799294
      py      :     0.891921
      dz2     :     0.091946  d :     0.873304
      dxz     :     0.137017
      dyz     :     0.189842
      dx2y2   :     0.240896
      dxy     :     0.213602
      f0      :     0.006737  f :     0.067709
      f+1     :     0.007029
      f-1     :     0.005686
      f+2     :     0.006259
      f-2     :     0.008423
      f+3     :     0.019159
      f-3     :     0.014414

 10 O s       :     3.320555  s :     3.320555
      pz      :     1.457576  p :     4.481020
      px      :     1.478361
      py      :     1.545083
      dz2     :     0.032266  d :     0.297947
      dxz     :     0.063843
      dyz     :     0.050118
      dx2y2   :     0.077281
      dxy     :     0.074440
      f0      :     0.000594  f :     0.004229
      f+1     :     0.000324
      f-1     :     0.000936
      f+2     :     0.000351
      f-2     :     0.000430
      f+3     :     0.000818
      f-3     :     0.000776

 11 H s       :     0.703284  s :     0.703284
      pz      :     0.087758  p :     0.223576
      px      :     0.057748
      py      :     0.078070

 12 H s       :     0.703303  s :     0.703303
      pz      :     0.095941  p :     0.223550
      px      :     0.058382
      py      :     0.069227

 13 H s       :     0.708356  s :     0.708356
      pz      :     0.060476  p :     0.222573
      px      :     0.091020
      py      :     0.071077

 14 H s       :     0.684994  s :     0.684994
      pz      :     0.080603  p :     0.205024
      px      :     0.052924
      py      :     0.071496

 15 H s       :     0.684972  s :     0.684972
      pz      :     0.088977  p :     0.205023
      px      :     0.052806
      py      :     0.063240

 16 H s       :     0.677236  s :     0.677236
      pz      :     0.087211  p :     0.204728
      px      :     0.055348
      py      :     0.062169

 17 H s       :     0.677226  s :     0.677226
      pz      :     0.079404  p :     0.204767
      px      :     0.054983
      py      :     0.070380

 18 H s       :     0.676749  s :     0.676749
      pz      :     0.086978  p :     0.204850
      px      :     0.055747
      py      :     0.062126

 19 H s       :     0.676777  s :     0.676777
      pz      :     0.079232  p :     0.204846
      px      :     0.055358
      py      :     0.070256

 20 H s       :     0.676608  s :     0.676608
      pz      :     0.079215  p :     0.204916
      px      :     0.055513
      py      :     0.070188

 21 H s       :     0.676617  s :     0.676617
      pz      :     0.086946  p :     0.204863
      px      :     0.055857
      py      :     0.062060

 22 H s       :     0.676401  s :     0.676401
      pz      :     0.086952  p :     0.204769
      px      :     0.055818
      py      :     0.061999

 23 H s       :     0.676431  s :     0.676431
      pz      :     0.079165  p :     0.204767
      px      :     0.055427
      py      :     0.070175

 24 H s       :     0.676254  s :     0.676254
      pz      :     0.087005  p :     0.204411
      px      :     0.055568
      py      :     0.061838

 25 H s       :     0.676305  s :     0.676305
      pz      :     0.079091  p :     0.204413
      px      :     0.055207
      py      :     0.070114

 26 H s       :     0.674924  s :     0.674924
      pz      :     0.078997  p :     0.204529
      px      :     0.055491
      py      :     0.070041

 27 H s       :     0.675188  s :     0.675188
      pz      :     0.086978  p :     0.203796
      px      :     0.055281
      py      :     0.061537

 28 H s       :     0.675206  s :     0.675206
      pz      :     0.087951  p :     0.201924
      px      :     0.052770
      py      :     0.061203

 29 H s       :     0.677695  s :     0.677695
      pz      :     0.078828  p :     0.202004
      px      :     0.053027
      py      :     0.070149

 30 H s       :     0.685150  s :     0.685150
      pz      :     0.081115  p :     0.192803
      px      :     0.043944
      py      :     0.067744

 31 H s       :     0.684443  s :     0.684443
      pz      :     0.090486  p :     0.193427
      px      :     0.045605
      py      :     0.057336

 32 H s       :     0.586241  s :     0.586241
      pz      :     0.140347  p :     0.317331
      px      :     0.079315
      py      :     0.097669



                      *****************************
                      * MAYER POPULATION ANALYSIS *
                      *****************************

  NA   - Mulliken gross atomic population
  ZA   - Total nuclear charge
  QA   - Mulliken gross atomic charge
  VA   - Mayer's total valence
  BVA  - Mayer's bonded valence
  FA   - Mayer's free valence

  ATOM       NA         ZA         QA         VA         BVA        FA
  0 C      7.4109     6.0000    -1.4109     3.5552     3.5552    -0.0000
  1 C      6.2249     6.0000    -0.2249     2.8740     2.8740    -0.0000
  2 C      6.5413     6.0000    -0.5413     3.3082     3.3082    -0.0000
  3 C      6.6012     6.0000    -0.6012     3.3591     3.3591    -0.0000
  4 C      6.6304     6.0000    -0.6304     3.3481     3.3481    -0.0000
  5 C      6.6200     6.0000    -0.6200     3.2898     3.2898    -0.0000
  6 C      6.6337     6.0000    -0.6337     3.3960     3.3960    -0.0000
  7 C      6.5795     6.0000    -0.5795     3.4329     3.4329    -0.0000
  8 C      6.4087     6.0000    -0.4087     3.2633     3.2633    -0.0000
  9 C      6.4638     6.0000    -0.4638     3.5341     3.5341    -0.0000
 10 O      8.5962     8.0000    -0.5962     1.7585     1.7585    -0.0000
 11 H      0.6567     1.0000     0.3433     1.0017     1.0017    -0.0000
 12 H      0.6566     1.0000     0.3434     1.0014     1.0014    -0.0000
 13 H      0.6112     1.0000     0.3888     0.9421     0.9421     0.0000
 14 H      0.7041     1.0000     0.2959     0.9203     0.9203    -0.0000
 15 H      0.7045     1.0000     0.2955     0.9210     0.9210     0.0000
 16 H      0.7096     1.0000     0.2904     0.9088     0.9088     0.0000
 17 H      0.7092     1.0000     0.2908     0.9080     0.9080    -0.0000
 18 H      0.7097     1.0000     0.2903     0.8976     0.8976    -0.0000
 19 H      0.7085     1.0000     0.2915     0.8959     0.8959    -0.0000
 20 H      0.7073     1.0000     0.2927     0.8786     0.8786    -0.0000
 21 H      0.7083     1.0000     0.2917     0.8796     0.8796    -0.0000
 22 H      0.7090     1.0000     0.2910     0.8777     0.8777    -0.0000
 23 H      0.7093     1.0000     0.2907     0.8770     0.8770    -0.0000
 24 H      0.7034     1.0000     0.2966     0.8819     0.8819    -0.0000
 25 H      0.7009     1.0000     0.2991     0.8804     0.8804    -0.0000
 26 H      0.6912     1.0000     0.3088     0.8954     0.8954    -0.0000
 27 H      0.6926     1.0000     0.3074     0.9036     0.9036    -0.0000
 28 H      0.6380     1.0000     0.3620     0.8217     0.8217    -0.0000
 29 H      0.7709     1.0000     0.2291     1.0432     1.0432    -0.0000
 30 H      0.7310     1.0000     0.2690     1.0156     1.0156    -0.0000
 31 H      0.7057     1.0000     0.2943     0.9491     0.9491    -0.0000
 32 H      0.6517     1.0000     0.3483     0.8801     0.8801    -0.0000

  Mayer bond orders larger than 0.100000
B(  0-C ,  1-C ) :   0.4802 B(  0-C ,  2-C ) :   0.2275 B(  0-C , 11-H ) :   0.9517 
B(  0-C , 12-H ) :   0.9514 B(  0-C , 13-H ) :   0.9058 B(  1-C ,  2-C ) :   0.4687 
B(  1-C ,  3-C ) :   0.3216 B(  1-C , 14-H ) :   0.9367 B(  1-C , 15-H ) :   0.9377 
B(  2-C ,  3-C ) :   0.4433 B(  2-C ,  4-C ) :   0.3835 B(  2-C , 16-H ) :   0.9683 
B(  2-C , 17-H ) :   0.9678 B(  3-C ,  4-C ) :   0.4140 B(  3-C ,  5-C ) :   0.3932 
B(  3-C , 18-H ) :   0.9652 B(  3-C , 19-H ) :   0.9642 B(  4-C ,  5-C ) :   0.3556 
B(  4-C ,  6-C ) :   0.4034 B(  4-C , 20-H ) :   0.9795 B(  4-C , 21-H ) :   0.9822 
B(  5-C ,  6-C ) :   0.3844 B(  5-C ,  7-C ) :   0.3900 B(  5-C , 22-H ) :   0.9836 
B(  5-C , 23-H ) :   0.9854 B(  6-C ,  7-C ) :   0.4834 B(  6-C ,  8-C ) :   0.3380 
B(  6-C , 24-H ) :   0.9650 B(  6-C , 25-H ) :   0.9623 B(  7-C ,  8-C ) :   0.5153 
B(  7-C ,  9-C ) :   0.2874 B(  7-C , 26-H ) :   0.9587 B(  7-C , 27-H ) :   0.9409 
B(  8-C ,  9-C ) :   0.6056 B(  8-C , 28-H ) :   0.8776 B(  8-C , 29-H ) :   0.9966 
B(  9-C , 10-O ) :   0.7529 B(  9-C , 30-H ) :   0.9751 B(  9-C , 31-H ) :   0.9212 
B( 10-O , 32-H ) :   0.8522 

-------
TIMINGS
-------

Total SCF time: 0 days 0 hours 0 min 16 sec 

Total time                  ....      16.988 sec
Sum of individual times     ....      16.926 sec  ( 99.6%)

SCF preparation             ....       1.271 sec  (  7.5%)
Fock matrix formation       ....      13.361 sec  ( 78.6%)
  Startup                   ....       0.081 sec  (  0.6% of F)
  Split-RI-J                ....       2.621 sec  ( 19.6% of F)
  XC integration            ....       8.025 sec  ( 60.1% of F)
    XC Preparation          ....       0.000 sec  (  0.0% of XC)
    Basis function eval.    ....       0.878 sec  ( 10.9% of XC)
    Density eval.           ....       1.355 sec  ( 16.9% of XC)
    XC-Functional eval.     ....       0.071 sec  (  0.9% of XC)
    XC-Potential eval.      ....       1.381 sec  ( 17.2% of XC)
  CPCM terms                ....       2.342 sec  ( 17.5% of F)
Diagonalization             ....       0.000 sec  (  0.0%)
Density matrix formation    ....       0.213 sec  (  1.3%)
Total Energy calculation    ....       0.152 sec  (  0.9%)
Population analysis         ....       0.123 sec  (  0.7%)
Orbital Transformation      ....       0.259 sec  (  1.5%)
Orbital Orthonormalization  ....       0.000 sec  (  0.0%)
DIIS solution               ....       0.918 sec  (  5.4%)
SOSCF solution              ....       0.630 sec  (  3.7%)
Finished LeanSCF after  17.1 sec

Maximum memory used throughout the entire LEANSCF-calculation: 59.0 MB

-------------------------   --------------------
FINAL SINGLE POINT ENERGY      -469.718428621583
-------------------------   --------------------



           ************************************************************
           *        Program running with 16 parallel MPI-processes    *
           *              working on a common directory               *
           ************************************************************

------------------------------------------------------------------------------
                              ORCA PROPERTY CALCULATIONS
------------------------------------------------------------------------------

GBWName                                 ... single_point_tzvpd.gbw
Number of atoms                         ...     33
Number of basis functions               ...    608
Max core memory                         ...   2000 MB

Electric properties:
Dipole moment                           ... YES
Quadrupole moment                       ...  NO
Static polarizability (Dipole/Dipole)   ...  NO
Static polarizability (Dipole/Quad.)    ...  NO
Static polarizability (Quad./Quad.)     ...  NO
Static polarizability (Velocity)        ...  NO

Atomic electric properties:
Dipole moment                           ...  NO
Quadrupole moment                       ...  NO
Static polarizability                   ...  NO

Choice of electric origin               ... Center of mass
Position of electric origin             ...     0.913176    -0.033201    -0.177907

General magnetic properties:
Magnetizability                         ...  NO

EPR properties:
g-Tensor (aka g-matrix)                 ...  NO
Zero-Field splitting spin-orbit         ...  NO
Zero-field splitting spin-spin          ...  NO
Hyperfine couplings                     ...  NO (   0 nuclei)
Quadrupole couplings                    ...  NO (   0 nuclei)
Contact density                         ...  NO (   0 nuclei)

NMR properties:
Chemical shifts                         ...  NO (   0 nuclei)
Spin-rotation constants                 ...  NO (   0 nuclei)
Spin-spin couplings                     ...  NO (   0 nuclei,    0 pairs)

Choice of magnetic origin               ... GIAO
Position of magnetic origin             ...     0.000000     0.000000     0.000000

Properties with geometric perturbations:
SCF Hessian                             ...  NO
IR spectrum                             ...  NO
VCD spectrum                            ...  NO
X-ray spectroscopy properties:
SCF XES/XAS/RIXS spectra                ...  NO


-------------
DIPOLE MOMENT
-------------

Method             : SCF
Type of density    : Electron Density
Multiplicity       :   1
Irrep              :   0
Energy             :  -469.7184286215829161 Eh
Relativity type    : 
Basis              : AO
                                X                 Y                 Z
Electronic contribution:     13.460722906      -0.602975177       0.997069632
Nuclear contribution   :    -14.112657163       0.576475728      -1.648206039
                        -----------------------------------------
Total Dipole Moment    :     -0.651934257      -0.026499449      -0.651136406
                        -----------------------------------------
Magnitude (a.u.)       :      0.921791254
Magnitude (Debye)      :      2.343007165



--------------------
Rotational spectrum 
--------------------
 
Rotational constants in cm-1:             0.263491             0.006220             0.006149 
Rotational constants in MHz :          7899.259118           186.462908           184.342242 

Dipole components along the rotational axes: 
x,y,z [a.u.] :    -0.692760    -0.002681     0.608092 
x,y,z [Debye]:    -1.760856    -0.006814     1.545646 

 

Dipole moment calculation done in   0.0 sec 

Maximum memory used throughout the entire PROP-calculation: 41.5 MB

--------------------------------
SUGGESTED CITATIONS FOR THIS RUN
--------------------------------

Below you find a list of papers that are relevant to this ORCA run
We neither can nor want to force you to cite these papers, but we appreciate if you do
You receive ORCA, which is the product of decades of hard work by many enthusiastic individuals, for free
The only thing we kindly ask in return is that you cite our papers,
We deeply appreciate it, if you show your appreciation for ORCA by not just citing the generic ORCA reference.

Please note that relegating all ORCA citations to the supporting information does *not* help us.
SI sections are not indexed - citations you put there will not count into any citation statistics
But we need these citations in order to attract the funding resources that allow us to do what we are doing

Therefore, if you are a happy ORCA user, please consider citing a few of the papers listed below in the main body of your paper

In addition to the list printed below, the program has created the file single_point_tzvpd.bibtex that contains the list in bibtex format
You can import this file easily into all common literature databanks and citation aid programs


List of essential papers. We consider these as the minimum necessary citations

  1. Neese,F.
     Software update: the ORCA program system, version 5.0
     WIRES Comput. Molec. Sci., 2022 12(1)e1606
     doi.org/10.1002/wcms.1606

List of papers to cite with high priority. The work reported in these papers was absolutely
necessary for this run to complete.
Our perspective: the developers of density functionals and basis sets usually get cited in chemistry papers
Good! But without the algorithms to do something with them, the functionals or basis sets would not do anything.
Hence, in our opinion, the algorithm design and method developments papers are equally worthy of getting cited

  1. Neese,F.
     An improvement of the resolution of the identity approximation for the formation of the Coulomb matrix
     J. Comp. Chem., 2003 24(14)1740-1747
     doi.org/10.1002/jcc.10318
  2. Garcia-Rates,M.; Neese,F.
     Effect of the Solute Cavity on the Solvation Energy and its Derivatives within the Framework of the Gaussian Charge Scheme
     J. Comput. Chem., 2020 41 922-939
     doi.org/10.1002/jcc.26139
  3. Neese,F.
     The SHARK Integral Generation and Digestion System
     J. Comp. Chem., 2022  1-16
     doi.org/10.1002/jcc.26942

List of suggested additional citations. These are papers that are important in the 'surrounding' of 
of this run, or papers that preceded the highly important papers. If you like your results we are grateful for a citation.

  1. Neese,F.
     The ORCA program system
     WIRES Comput. Molec. Sci., 2012 2(1)73-78
     doi.org/10.1002/wcms.81
  2. Neese,F.
     Software update: the ORCA program system, version 4.0
     WIRES Comput. Molec. Sci., 2018 8(1)1-6
     doi.org/10.1002/wcms.1327
  3. Neese,F.; Wennmohs,F.; Becker,U.; Riplinger,C.
     The ORCA quantum chemistry program package
     J. Chem. Phys., 2020 152 Art. No. L224108
     doi.org/10.1063/5.0004608

List of optional additional citations

  1. Neese,F.
     Approximate second-order SCF convergence for spin unrestricted wavefunctions
     Chem. Phys. Lett., 2000 325(1-3)93-98
     doi.org/10.1016/s0009-2614(00)00662-x

Timings for individual modules:

Sum of individual times          ...       23.038 sec (=   0.384 min)
Startup calculation              ...        2.354 sec (=   0.039 min)  10.2 %
SCF iterations                   ...       19.268 sec (=   0.321 min)  83.6 %
Property calculations            ...        1.416 sec (=   0.024 min)   6.1 %



                             ****ORCA TERMINATED NORMALLY****
TOTAL RUN TIME: 0 days 0 hours 1 minutes 29 seconds 115 msec
