
                                 *****************
                                 * O   R   C   A *
                                 *****************

                                            #,                                       
                                            ###                                      
                                            ####                                     
                                            #####                                    
                                            ######                                   
                                           ########,                                 
                                     ,,################,,,,,                         
                               ,,#################################,,                 
                          ,,##########################################,,             
                       ,#########################################, ''#####,          
                    ,#############################################,,   '####,        
                  ,##################################################,,,,####,       
                ,###########''''           ''''###############################       
              ,#####''   ,,,,##########,,,,          '''####'''          '####       
            ,##' ,,,,###########################,,,                        '##       
           ' ,,###''''                  '''############,,,                           
         ,,##''                                '''############,,,,        ,,,,,,###''
      ,#''                                            '''#######################'''  
     '                                                          ''''####''''         
             ,#######,   #######,   ,#######,      ##                                
            ,#'     '#,  ##    ##  ,#'     '#,    #''#        ,####,   ,####,        
            ##       ##  ##   ,#'  ##            #'  '#       #'       #'  '#        
            ##       ##  #######   ##           ,######,      #####,   #    #        
            '#,     ,#'  ##    ##  '#,     ,#' ,#      #,     #,   #   #,  ,#        
             '#######'   ##     ##  '#######'  #'      '#     '####' # '####'        



                #########################################################
                #                        -***-                          #
                #          Department of theory and spectroscopy        #
                #                                                       #
                #                      Frank Neese                      #
                #                                                       #
                #     Directorship, Architecture, Infrastructure        #
                #                    SHARK, DRIVERS                     #
                #        Core code/Algorithms in most modules           #
                #                                                       #
                #        Max Planck Institute fuer Kohlenforschung      #
                #                Kaiser Wilhelm Platz 1                 #
                #                 D-45470 Muelheim/Ruhr                 #
                #                      Germany                          #
                #                                                       #
                #                  All rights reserved                  #
                #                        -***-                          #
                #########################################################


                         Program Version 6.0.0  -   RELEASE  -


 With contributions from (in alphabetic order):
   Daniel Aravena         : Magnetic Suceptibility
   Michael Atanasov       : Ab Initio Ligand Field Theory (pilot matlab implementation)
   Alexander A. Auer      : GIAO ZORA, VPT2 properties, NMR spectrum
   Ute Becker             : All parallelization in ORCA, NUMFREQ, NUMCALC
   Giovanni Bistoni       : ED, misc. LED, open-shell LED, HFLD
   Martin Brehm           : Molecular dynamics
   Dmytro Bykov           : pre 5.0 version of the SCF Hessian
   Marcos Casanova-Páez   : Triplet and SCS-CIS(D). UHF-(DLPNO)-IP/EA/STEOM-CCSD. UHF-CVS-IP/STEOM-CCSD
   Vijay G. Chilkuri      : MRCI spin determinant printing, contributions to CSF-ICE
   Pauline Colinet        : FMM embedding
   Dipayan Datta          : RHF DLPNO-CCSD density
   Achintya Kumar Dutta   : EOM-CC, STEOM-CC
   Nicolas Foglia         : Exact transition moments, OPA infrastructure, MCD improvements
   Dmitry Ganyushin       : Spin-Orbit,Spin-Spin,Magnetic field MRCI
   Miquel Garcia          : C-PCM and meta-GGA Hessian, CCSD/C-PCM, Gaussian charge scheme
   Tiago L. C. Gouveia    : GS-ROHF, GS-ROCIS
   Yang Guo               : DLPNO-NEVPT2, F12-NEVPT2, CIM, IAO-localization
   Andreas Hansen         : Spin unrestricted coupled pair/coupled cluster methods
   Ingolf Harden          : AUTO-CI MPn and infrastructure 
   Benjamin Helmich-Paris : MC-RPA, TRAH-(SCF,CASSCF), AVAS, COSX integrals, SCF dyn. polar.
   Lee Huntington         : MR-EOM, pCC
   Robert Izsak           : Overlap fitted RIJCOSX, COSX-SCS-MP3, EOM
   Riya Kayal             : Wick's Theorem for AUTO-CI, AUTO-CI UHF-CCSDT
   Emily Kempfer          : AUTO-CI, RHF CISDT and CCSDT
   Christian Kollmar      : KDIIS, OOCD, Brueckner-CCSD(T), CCSD density, CASPT2, CASPT2-K, improved NEVPT2
   Axel Koslowski         : Symmetry handling
   Simone Kossmann        : Meta GGA functionals, TD-DFT gradient, OOMP2, (MP2 Hessian; deprecated post 5.0)
   Lucas Lang             : DCDCAS
   Marvin Lechner         : AUTO-CI (C++ implementation), FIC-MRCC
   Spencer Leger          : CASSCF response
   Dagmar Lenk            : GEPOL surface, SMD, ORCA-2-JSON
   Dimitrios Liakos       : Extrapolation schemes; Compound Job, initial MDCI parallelization
   Dimitrios Manganas     : Further ROCIS development; embedding schemes. LFT, Crystal Embedding
   Dimitrios Pantazis     : SARC Basis sets
   Anastasios Papadopoulos: AUTO-CI, single reference methods and gradients
   Taras Petrenko         : pre 6.0 DFT Hessian and TD-DFT gradient, (ASA, deprecated), ECA, 1-Electron XAS/XES, NRVS
   Peter Pinski           : DLPNO-MP2, DLPNO-MP2 Gradient
   Christoph Reimann      : Effective Core Potentials
   Marius Retegan         : Local ZFS, SOC
   Christoph Riplinger    : Optimizer, TS searches, QM/MM, DLPNO-CCSD(T), (RO)-DLPNO pert. Triples
   Michael Roemelt        : Original ROCIS implementation
   Masaaki Saitow         : Open-shell DLPNO-CCSD energy and density
   Barbara Sandhoefer     : DKH picture change effects
   Kantharuban Sivalingam : CASSCF convergence/infrastructure, NEVPT2 and variants, FIC-MRCI
   Bernardo de Souza      : ESD, SOC TD-DFT
   Georgi Stoychev        : AutoAux, RI-MP2 NMR, DLPNO-MP2 response, X2C
   Van Anh Tran           : RI-MP2 g-tensors
   Willem Van den Heuvel  : Paramagnetic NMR
   Zikuan Wang            : NOTCH, Electric field optimization 
   Frank Wennmohs         : Technical directorship and infrastructure
   Hang Xu                : AUTO-CI-Response properties 


 We gratefully acknowledge several colleagues who have allowed us to
 interface, adapt or use parts of their codes:
   Stefan Grimme, W. Hujo, H. Kruse, P. Pracht,  : VdW corrections, initial TS optimization,
                  C. Bannwarth, S. Ehlert,         DFT functionals, gCP, sTDA/sTD-DF
                  L. Wittmann, M. Mueller
   Ed Valeev, F. Pavosevic, A. Kumar             : LibInt (2-el integral package), F12 methods
   Garnet Chan, S. Sharma, J. Yang, R. Olivares  : DMRG
   Ulf Ekstrom                                   : XCFun DFT Library
   Mihaly Kallay                                 : mrcc  (arbitrary order and MRCC methods)
   Frank Weinhold                                : gennbo (NPA and NBO analysis)
   Simon Mueller                                 : openCOSMO-RS
   Christopher J. Cramer and Donald G. Truhlar   : smd solvation model
   Lars Goerigk                                  : TD-DFT with DH, B97 family of functionals
   V. Asgeirsson, H. Jonsson                     : NEB implementation
   FAccTs GmbH                                   : IRC, NEB, NEB-TS, DLPNO-Multilevel, CI-OPT
                                                   MM, QMMM, 2- and 3-layer-ONIOM, Crystal-QMMM,
                                                   LR-CPCM, SF, NACMEs, symmetry and pop. for TD-DFT,
                                                   nearIR, NL-DFT gradient (VV10), updates on ESD,
                                                   ML-optimized integration grids, MBIS, APM,
                                                   GOAT, DOCKER, SOLVATOR, interface openCOSMO-RS
   S Lehtola, MJT Oliveira, MAL Marques          : LibXC Library
   Liviu Ungur et al                             : ANISO software


 Your calculation uses the libint2 library for the computation of 2-el integrals
 For citations please refer to: http://libint.valeyev.net

 Your ORCA version has been built with support for libXC version: 6.2.2
 For citations please refer to: https://libxc.gitlab.io

 This ORCA versions uses:
   CBLAS   interface :  Fast vector & matrix operations
   LAPACKE interface :  Fast linear algebra routines
   SCALAPACK package :  Parallel linear algebra routines
   Shared memory     :  Shared parallel matrices
   BLAS/LAPACK       :  OpenBLAS 0.3.27  USE64BITINT DYNAMIC_ARCH NO_AFFINITY Zen SINGLE_THREADED
        Core in use  :  Zen
   Copyright (c) 2011-2014, The OpenBLAS Project


NOTE: MaxCore=2000 MB was set to SCF,MP2,MDCI,CIPSI,MRCI and CIS
      => If you want to overwrite this, your respective input block should be placed after the MaxCore statement


***************************************
The coordinates will be read from file: thf_c000.xyz
***************************************


Warning: RI is on but no J-basis has been assigned. Assigning Def2/J (nothing to worry about!)
================================================================================

----- Orbital basis set information -----
Your calculation utilizes the basis: def2-TZVP
   F. Weigend and R. Ahlrichs, Phys. Chem. Chem. Phys. 7, 3297 (2005).

----- AuxJ basis set information -----
Your calculation utilizes the auxiliary basis: def2/J
   F. Weigend, Phys. Chem. Chem. Phys. 8, 1057 (2006).

================================================================================
                                        WARNINGS
                       Please study these warnings very carefully!
================================================================================


WARNING: Geometry Optimization
  ===> : Switching off AutoStart
         For restart on a previous wavefunction, please use MOREAD



***************************************
The coordinates will be read from file: geo_opt_tzvp.xyz
***************************************


Warning: RI is on but no J-basis has been assigned. Assigning Def2/J (nothing to worry about!)
================================================================================

----- Orbital basis set information -----
Your calculation utilizes the basis: def2-TZVPD
   F. Weigend and R. Ahlrichs, Phys. Chem. Chem. Phys. 7, 3297 (2005).
   D. Rappoport and F. Furche, J. Chem. Phys. 133, 134105 (2010)
   D. Rappoport, J. Chem. Phys. 155, 124102 (2021).

----- AuxJ basis set information -----
Your calculation utilizes the auxiliary basis: def2/J
   F. Weigend, Phys. Chem. Chem. Phys. 8, 1057 (2006).

================================================================================
                                        WARNINGS
                       Please study these warnings very carefully!
================================================================================


================================================================================
                                       INPUT FILE
================================================================================
NAME = input.dat
|  1> %MaxCore 2000
|  2> 
|  3> %base "geo_opt_tzvp"
|  4> 
|  5> %cpcm
|  6> radius[1]  1.3
|  7> radius[2]  1.601
|  8> radius[5]  2.048
|  9> radius[6]  2.0
| 10> radius[7]  1.83
| 11> radius[8]  1.72
| 12> radius[9]  1.72
| 13> radius[10]  1.771
| 14> radius[13]  2.152
| 15> radius[14]  2.2
| 16> radius[15]  2.106
| 17> radius[16]  2.16
| 18> radius[17]  2.05
| 19> radius[18]  2.184
| 20> radius[22]  2.261
| 21> radius[26]  2.195
| 22> radius[27]  2.153
| 23> radius[31]  2.172
| 24> radius[32]  2.7
| 25> radius[33]  2.148
| 26> radius[34]  2.2
| 27> radius[35]  2.16
| 28> radius[36]  2.354
| 29> radius[49]  2.245
| 30> radius[50]  2.55
| 31> radius[51]  2.402
| 32> radius[53]  2.32
| 33> radius[54]  2.524
| 34> radius[80]  1.978
| 35> radius[82]  2.36
| 36> radius[86]  2.573
| 37> cut_area 0.03571064825863687
| 38> end
| 39> 
| 40> ! OPT CPCM BP86 def2-TZVP
| 41> 
| 42> * xyzfile 0 1 thf_c000.xyz
| 43> 
| 44> $new_job
| 45> 
| 46> ! CPCM BP86 def2-TZVPD SP
| 47> 
| 48> %base "single_point_tzvpd"
| 49> 
| 50> * xyzfile 0 1 geo_opt_tzvp.xyz
| 51> 
| 52>                          ****END OF INPUT****
================================================================================


                 $$$$$$$$$$$$$$$$$$$$$$$$$$$$$$$$$$$$$$$$$$$$$$ 
                 $ THERE ARE  2 JOBS TO BE PROCESSED THIS RUN $
                 $$$$$$$$$$$$$$$$$$$$$$$$$$$$$$$$$$$$$$$$$$$$$$ 




                 $$$$$$$$$$$$$$$$  JOB NUMBER  1 $$$$$$$$$$$$$$


                       *****************************
                       * Geometry Optimization Run *
                       *****************************

Geometry optimization settings:
Update method            Update   .... BFGS
Choice of coordinates    CoordSys .... (2022) Redundant Internals
Initial Hessian          InHess   .... Almloef's Model
Max. no of cycles        MaxIter  .... 50

Convergence Tolerances:
Energy Change            TolE     ....  5.0000e-06 Eh
Max. Gradient            TolMAXG  ....  3.0000e-04 Eh/bohr
RMS Gradient             TolRMSG  ....  1.0000e-04 Eh/bohr
Max. Displacement        TolMAXD  ....  4.0000e-03 bohr
RMS Displacement         TolRMSD  ....  2.0000e-03 bohr
Strict Convergence                .... False

------------------------------------------------------------------------------
                        ORCA OPTIMIZATION COORDINATE SETUP
------------------------------------------------------------------------------

The optimization will be done in redundant internal coordinates (2022)
Making redundant internal coordinates   ...  (2022 redundants) done
Evaluating the initial hessian          ...  (Almloef) done
Evaluating the coordinates              ...  done
Calculating the B-matrix                .... done
Calculating the G-matrix                .... done
Diagonalizing the G-matrix              .... done
The first mode is                       ....   29
The number of degrees of freedom        ....   33

    -----------------------------------------------------------------
                    Redundant Internal Coordinates


    -----------------------------------------------------------------
         Definition                    Initial Value    Approx d2E/dq
    -----------------------------------------------------------------
      1. B(C   1,C   0)                  1.5370         0.364092   
      2. B(C   2,C   1)                  1.5289         0.375107   
      3. B(O   3,C   2)                  1.4550         0.440697   
      4. B(C   4,O   3)                  1.4551         0.440618   
      5. B(C   4,C   0)                  1.5288         0.375194   
      6. B(H   5,C   0)                  1.0981         0.349583   
      7. B(H   6,C   0)                  1.1004         0.346545   
      8. B(H   7,C   1)                  1.1005         0.346511   
      9. B(H   8,C   1)                  1.0981         0.349578   
     10. B(H   9,C   2)                  1.1044         0.341585   
     11. B(H  10,C   2)                  1.1002         0.346875   
     12. B(H  11,C   4)                  1.1044         0.341589   
     13. B(H  12,C   4)                  1.1002         0.346844   
     14. A(H   5,C   0,H   6)          108.4054         0.287756   
     15. A(C   1,C   0,C   4)          101.8725         0.362027   
     16. A(C   4,C   0,H   5)          112.3082         0.322974   
     17. A(C   1,C   0,H   5)          113.2231         0.321389   
     18. A(C   1,C   0,H   6)          110.4140         0.320930   
     19. A(C   4,C   0,H   6)          110.5310         0.322513   
     20. A(C   2,C   1,H   8)          112.3159         0.322961   
     21. A(C   0,C   1,H   8)          113.2392         0.321388   
     22. A(C   2,C   1,H   7)          110.5388         0.322495   
     23. A(C   0,C   1,H   7)          110.3954         0.320925   
     24. A(H   7,C   1,H   8)          108.3821         0.287751   
     25. A(C   0,C   1,C   2)          101.8848         0.362012   
     26. A(H   9,C   2,H  10)          108.6370         0.286760   
     27. A(C   1,C   2,O   3)          106.3064         0.371725   
     28. A(C   1,C   2,H  10)          113.3692         0.322551   
     29. A(O   3,C   2,H   9)          108.8722         0.328399   
     30. A(C   1,C   2,H   9)          111.2529         0.321740   
     31. A(O   3,C   2,H  10)          108.2635         0.329233   
     32. A(C   2,O   3,C   4)          109.0585         0.379803   
     33. A(H  11,C   4,H  12)          108.6350         0.286757   
     34. A(O   3,C   4,H  12)          108.2619         0.329218   
     35. A(C   0,C   4,H  12)          113.3687         0.322558   
     36. A(O   3,C   4,H  11)          108.8780         0.328390   
     37. A(C   0,C   4,H  11)          111.2565         0.321752   
     38. A(C   0,C   4,O   3)          106.3013         0.371728   
     39. D(C   2,C   1,C   0,C   4)     37.4702         0.010619   
     40. D(H   7,C   1,C   0,H   6)    162.6061         0.010619   
     41. D(H   7,C   1,C   0,C   4)    -79.9656         0.010619   
     42. D(H   7,C   1,C   0,H   5)     40.8509         0.010619   
     43. D(C   2,C   1,C   0,H   5)    158.2867         0.010619   
     44. D(C   2,C   1,C   0,H   6)    -79.9581         0.010619   
     45. D(O   3,C   2,C   1,C   0)    -31.3016         0.011230   
     46. D(H   9,C   2,C   1,H   8)    -34.3995         0.011230   
     47. D(H   9,C   2,C   1,C   0)     87.0831         0.011230   
     48. D(O   3,C   2,C   1,H   8)   -152.7842         0.011230   
     49. D(O   3,C   2,C   1,H   7)     86.0310         0.011230   
     50. D(H   9,C   2,C   1,H   7)   -155.5844         0.011230   
     51. D(C   4,O   3,C   2,H  10)    134.3259         0.015294   
     52. D(C   4,O   3,C   2,H   9)   -107.7404         0.015294   
     53. D(C   4,O   3,C   2,C   1)     12.2025         0.015294   
     54. D(H  12,C   4,O   3,C   2)    134.4402         0.015289   
     55. D(C   0,C   4,O   3,C   2)     12.3213         0.015289   
     56. D(H  11,C   4,C   0,H   6)   -155.6362         0.011235   
     57. D(H  11,C   4,C   0,H   5)    -34.4323         0.011235   
     58. D(H  11,C   4,C   0,C   1)     87.0198         0.011235   
     59. D(O   3,C   4,C   0,H   6)     85.9733         0.011235   
     60. D(H  11,C   4,O   3,C   2)   -107.6260         0.015289   
     61. D(O   3,C   4,C   0,H   5)   -152.8228         0.011235   
     62. D(O   3,C   4,C   0,C   1)    -31.3707         0.011235   
    -----------------------------------------------------------------

Number of atoms                         .... 13
Number of degrees of freedom            .... 62


         *************************************************************
         *                GEOMETRY OPTIMIZATION CYCLE   1            *
         *************************************************************
---------------------------------
CARTESIAN COORDINATES (ANGSTROEM)
---------------------------------
  C     -0.706274   -0.741168    0.334205
  C      0.745889   -0.757991   -0.169090
  C      1.162935    0.700197    0.023915
  O     -0.039717    1.497351   -0.163854
  C     -1.197747    0.616347   -0.168691
  H     -1.308897   -1.572744   -0.054484
  H     -0.731876   -0.777753    1.433743
  H      0.779371   -1.031353   -1.234543
  H      1.389163   -1.452745    0.387038
  H      1.551184    0.873988    1.043076
  H      1.917371    1.038071   -0.702084
  H     -1.587584    0.544270   -1.199446
  H     -1.973818    1.063530    0.470217

----------------------------
CARTESIAN COORDINATES (A.U.)
----------------------------
  NO LB      ZA    FRAG     MASS         X           Y           Z
   0 C     6.0000    0    12.011   -1.334664   -1.400604    0.631555
   1 C     6.0000    0    12.011    1.409526   -1.432396   -0.319535
   2 C     6.0000    0    12.011    2.197628    1.323181    0.045192
   3 O     8.0000    0    15.999   -0.075054    2.829584   -0.309640
   4 C     6.0000    0    12.011   -2.263414    1.164728   -0.318781
   5 H     1.0000    0     1.008   -2.473457   -2.972056   -0.102959
   6 H     1.0000    0     1.008   -1.383046   -1.469739    2.709381
   7 H     1.0000    0     1.008    1.472797   -1.948976   -2.332947
   8 H     1.0000    0     1.008    2.625138   -2.745290    0.731396
   9 H     1.0000    0     1.008    2.931312    1.651598    1.971127
  10 H     1.0000    0     1.008    3.623307    1.961669   -1.326747
  11 H     1.0000    0     1.008   -3.000098    1.028522   -2.266625
  12 H     1.0000    0     1.008   -3.729975    2.009780    0.888582

--------------------------------
INTERNAL COORDINATES (ANGSTROEM)
--------------------------------
 C      0   0   0     0.000000000000     0.00000000     0.00000000
 C      1   0   0     1.536998969400     0.00000000     0.00000000
 C      2   1   0     1.528885862080   101.88477301     0.00000000
 O      3   2   1     1.455019906863   106.30644119   328.69843953
 C      4   3   2     1.455068680525   109.05845732    12.20248721
 H      1   2   3     1.098068163825   113.22307680   158.28669921
 H      1   2   3     1.100444425204   110.41399723   280.04187275
 H      2   1   3     1.100470826115   110.39543305   242.56420146
 H      2   1   3     1.098072556327   113.23917384   120.84146952
 H      3   2   1     1.104368460894   111.25293879    87.08309297
 H      3   2   1     1.100185241782   113.36920739   209.87524108
 H      5   4   3     1.104365543895   108.87801102   252.37400692
 H      5   4   3     1.100209820996   108.26189535   134.44024881

---------------------------
INTERNAL COORDINATES (A.U.)
---------------------------
 C      0   0   0     0.000000000000     0.00000000     0.00000000
 C      1   0   0     2.904507120285     0.00000000     0.00000000
 C      2   1   0     2.889175569355   101.88477301     0.00000000
 O      3   2   1     2.749589143375   106.30644119   328.69843953
 C      4   3   2     2.749681312238   109.05845732    12.20248721
 H      1   2   3     2.075048106006   113.22307680   158.28669921
 H      1   2   3     2.079538589235   110.41399723   280.04187275
 H      2   1   3     2.079588479728   110.39543305   242.56420146
 H      2   1   3     2.075056406633   113.23917384   120.84146952
 H      3   2   1     2.086953942030   111.25293879    87.08309297
 H      3   2   1     2.079048803550   113.36920739   209.87524108
 H      5   4   3     2.086948429701   108.87801102   252.37400692
 H      5   4   3     2.079095251533   108.26189535   134.44024881

---------------------
BASIS SET INFORMATION
---------------------
There are 3 groups of distinct atoms

 Group   1 Type C   : 11s6p2d1f contracted to 5s3p2d1f pattern {62111/411/11/1}
 Group   2 Type O   : 11s6p2d1f contracted to 5s3p2d1f pattern {62111/411/11/1}
 Group   3 Type H   : 5s1p contracted to 3s1p pattern {311/1}

Atom   0C    basis set group =>   1
Atom   1C    basis set group =>   1
Atom   2C    basis set group =>   1
Atom   3O    basis set group =>   2
Atom   4C    basis set group =>   1
Atom   5H    basis set group =>   3
Atom   6H    basis set group =>   3
Atom   7H    basis set group =>   3
Atom   8H    basis set group =>   3
Atom   9H    basis set group =>   3
Atom  10H    basis set group =>   3
Atom  11H    basis set group =>   3
Atom  12H    basis set group =>   3
---------------------------------
AUXILIARY/J BASIS SET INFORMATION
---------------------------------
There are 3 groups of distinct atoms

 Group   1 Type C   : 12s5p4d2f1g contracted to 6s4p3d1f1g pattern {711111/2111/211/2/1}
 Group   2 Type O   : 12s5p4d2f1g contracted to 6s4p3d1f1g pattern {711111/2111/211/2/1}
 Group   3 Type H   : 5s2p1d contracted to 3s1p1d pattern {311/2/1}

Atom   0C    basis set group =>   1
Atom   1C    basis set group =>   1
Atom   2C    basis set group =>   1
Atom   3O    basis set group =>   2
Atom   4C    basis set group =>   1
Atom   5H    basis set group =>   3
Atom   6H    basis set group =>   3
Atom   7H    basis set group =>   3
Atom   8H    basis set group =>   3
Atom   9H    basis set group =>   3
Atom  10H    basis set group =>   3
Atom  11H    basis set group =>   3
Atom  12H    basis set group =>   3
------------------------------------------------------------------------------
                             ORCA STARTUP CALCULATIONS
                           -- RI-GTO INTEGRALS CHOSEN --
------------------------------------------------------------------------------
------------------------------------------------------------------------------
                   ___                                                        
                  /   \      - P O W E R E D   B Y -                         
                 /     \                                                     
                 |  |  |   _    _      __       _____    __    __             
                 |  |  |  | |  | |    /  \     |  _  \  |  |  /  |          
                  \  \/   | |  | |   /    \    | | | |  |  | /  /          
                 / \  \   | |__| |  /  /\  \   | |_| |  |  |/  /          
                |  |  |   |  __  | /  /__\  \  |    /   |      \           
                |  |  |   | |  | | |   __   |  |    \   |  |\   \          
                \     /   | |  | | |  |  |  |  | |\  \  |  | \   \       
                 \___/    |_|  |_| |__|  |__|  |_| \__\ |__|  \__/        
                                                                              
                      - O R C A' S   B I G   F R I E N D -                    
                                      &                                       
                       - I N T E G R A L  F E E D E R -                       
                                                                              
 v1 FN, 2020, v2 2021, v3 2022-2024                                           
------------------------------------------------------------------------------


----------------------
SHARK INTEGRAL PACKAGE
----------------------

Number of atoms                             ...     13
Number of basis functions                   ...    203
Number of shells                            ...     87
Maximum angular momentum                    ...      3
Integral batch strategy                     ... SHARK/LIBINT Hybrid
RI-J (if used) integral strategy            ... SPLIT-RIJ (Revised 2003 algorithm where possible)
Printlevel                                  ...      1
Contraction scheme used                     ... SEGMENTED contraction
Prescreening option                         ... SCHWARTZ
   Thresh                                   ... 2.500e-11
   Tcut                                     ... 2.500e-12
   Tpresel                                  ... 2.500e-12 
Coulomb Range Separation                    ... NOT USED
Exchange Range Separation                   ... NOT USED
Multipole approximations                    ... NOT USED
Finite Nucleus Model                        ... NOT USED
CABS basis                                  ... NOT available
Auxiliary Coulomb fitting basis             ... AVAILABLE
   # of basis functions in Aux-J            ...    333
   # of shells in Aux-J                     ...    115
   Maximum angular momentum in Aux-J        ...      4
Auxiliary J/K fitting basis                 ... NOT available
Auxiliary Correlation fitting basis         ... NOT available
Auxiliary 'external' fitting basis          ... NOT available

Checking pre-screening integrals            ... done (  0.0 sec) Dimension = 87
Check shell pair data                       ... done (  0.0 sec)
Shell pair information
Shell pair cut-off parameter TPreSel        ...   2.5e-12
Total number of shell pairs                 ...      3828
Shell pairs after pre-screening             ...      3747
Total number of primitive shell pairs       ...     11160
Primitive shell pairs kept                  ...      8874
          la=0 lb=0:   1160 shell pairs
          la=1 lb=0:   1115 shell pairs
          la=1 lb=1:    276 shell pairs
          la=2 lb=0:    486 shell pairs
          la=2 lb=1:    230 shell pairs
          la=2 lb=2:     55 shell pairs
          la=3 lb=0:    245 shell pairs
          la=3 lb=1:    115 shell pairs
          la=3 lb=2:     50 shell pairs
          la=3 lb=3:     15 shell pairs

Calculating one electron integrals          ... done (  0.0 sec)
Calculating RI/J V-Matrix + Cholesky decomp.... done (  0.0 sec)
Calculating Nuclear repulsion               ... done (  0.0 sec) ENN=    189.311318214354 Eh

Diagonalization of the overlap matrix:
Smallest eigenvalue                        ... 1.915e-04
Time for diagonalization                   ...    0.004 sec
Threshold for overlap eigenvalues          ... 1.000e-07
Number of eigenvalues below threshold      ... 0
Time for construction of square roots      ...    0.003 sec
Total time needed                          ...    0.007 sec

-------------------
DFT GRID GENERATION
-------------------

General Integration Accuracy     IntAcc      ... 4.388
Radial Grid Type                 RadialGrid  ... OptM3 with GC (2021)
Angular Grid (max. ang.)         AngularGrid ... 4 (Lebedev-302)
Angular grid pruning method      GridPruning ... 4 (adaptive)
Weight generation scheme         WeightScheme... mBecke (2022)
Basis function cutoff            BFCut       ... 1.0000e-11
Integration weight cutoff        WCut        ... 1.0000e-14
Partially contracted basis set               ... off
Rotationally invariant grid construction     ... off
Angular grids for H and He will be reduced by one unit

Total number of grid points                  ...    55885
Total number of batches                      ...      880
Average number of points per batch           ...       63
Average number of grid points per atom       ...     4299
Initializing property integral containers    ... done (  0.0 sec)

SHARK setup successfully completed in   0.6 seconds

Maximum memory used throughout the entire STARTUP-calculation: 29.8 MB
-------------------------------------------------------------------------------
                                 ORCA GUESS
                   Start orbitals & Density for SCF / CASSCF
-------------------------------------------------------------------------------

------------
SCF SETTINGS
------------
Hamiltonian:
 Density Functional     Method          .... DFT(GTOs)
 Exchange Functional    Exchange        .... B88
   X-Alpha parameter    XAlpha          ....  0.666667
   Becke's b parameter  XBeta           ....  0.004200
 Correlation Functional Correlation     .... P86
 LDA part of GGA corr.  LDAOpt          .... PW91-LDA
 Gradients option       PostSCFGGA      .... off
   NL short-range parameter             ....  4.400000
 RI-approximation to the Coulomb term is turned on
   Number of AuxJ basis functions       .... 333


General Settings:
 Integral files         IntName         .... geo_opt_tzvp
 Hartree-Fock type      HFTyp           .... RHF
 Total Charge           Charge          ....    0
 Multiplicity           Mult            ....    1
 Number of Electrons    NEL             ....   40
 Basis Dimension        Dim             ....  203
 Nuclear Repulsion      ENuc            ....    189.3113182144 Eh

Convergence Acceleration:
 AO-DIIS                CNVDIIS         .... on
   Start iteration      DIISMaxIt       ....    12
   Startup error        DIISStart       ....  0.200000
   # of expansion vecs  DIISMaxEq       ....     5
   Bias factor          DIISBfac        ....   1.050
   Max. coefficient     DIISMaxC        ....  10.000
 MO-DIIS                CNVKDIIS        .... off
 Trust-Rad. Augm. Hess. CNVTRAH         .... auto
   Auto Start mean grad. ratio tolernc. ....  1.125000
   Auto Start start iteration           ....    50
   Auto Start num. interpolation iter.  ....    10
   Max. Number of Micro iterations      ....    24
   Max. Number of Macro iterations      .... Maxiter - #DIIS iter
   Number of Davidson start vectors     ....     2
   Converg. threshold    (grad. norm)   ....   1.000e-05
   Grad. Scal. Fac. for Micro threshold ....   0.100
   Minimum threshold for Micro iter.    ....   1.000e-02
   NR start threshold (gradient norm)   ....   1.000e-04
   Initial trust radius                 ....   0.400
   Minimum AH scaling param. (alpha)    ....   1.000
   Maximum AH scaling param. (alpha)    .... 1000.000
   Quad. conv. algorithm                .... NR
   White noise on init. David. guess    .... on
   Maximum white noise                  ....   0.010
   Pseudo random numbers                .... off
   Inactive MOs                         .... canonical
   Orbital update algorithm             .... Taylor
   Preconditioner                       .... Diag
   Full preconditioner red. dimension   ....   250
 SOSCF                  CNVSOSCF        .... on
   Start iteration      SOSCFMaxIt      ....   150
   Startup grad/error   SOSCFStart      ....  0.003300
   Hessian update       SOSCFHessUp     .... L-BFGS
 Level Shifting         CNVShift        .... on
   Level shift para.    LevelShift      ....    0.2500
   Turn off err/grad.   ShiftErr        ....    0.0010
 Zerner damping         CNVZerner       .... off
 Static damping         CNVDamp         .... on
   Fraction old density DampFac         ....    0.7000
   Max. Damping (<1)    DampMax         ....    0.9800
   Min. Damping (>=0)   DampMin         ....    0.0000
   Turn off err/grad.   DampErr         ....    0.1000

SCF Procedure:
 Maximum # iterations   MaxIter         ....   125
 SCF integral mode      SCFMode         .... Direct
   Integral package                     .... SHARK and LIBINT hybrid scheme
 Reset frequency        DirectResetFreq ....    20
 Integral Threshold     Thresh          ....  2.500e-11 Eh
 Primitive CutOff       TCut            ....  2.500e-12 Eh

Convergence Tolerance:
 Convergence Check Mode ConvCheckMode   .... Total+1el-Energy
 Convergence forced     ConvForced      .... 0
 Energy Change          TolE            ....  1.000e-08 Eh
 1-El. energy change                    ....  1.000e-05 Eh
 Orbital Gradient       TolG            ....  1.000e-05
 Orbital Rotation angle TolX            ....  1.000e-05
 DIIS Error             TolErr          ....  5.000e-07

------------------------------
INITIAL GUESS: MODEL POTENTIAL
------------------------------
Loading Hartree-Fock densities                     ... done
Calculating cut-offs                               ... done
Initializing the effective Hamiltonian             ... done
Setting up the integral package (SHARK)            ... done
Starting the Coulomb interaction                   ... done (   0.1 sec)
Making the grid                                    ... done (   0.1 sec)
Mapping shells                                     ... done
Starting the XC term evaluation                    ... done (   0.2 sec)
  promolecular density results
     # of electrons  =     39.993245138
     EX              =    -31.124785857
     EC              =     -1.439785225
     EX+EC           =    -32.564571083
Transforming the Hamiltonian                       ... done (   0.0 sec)
Diagonalizing the Hamiltonian                      ... done (   0.0 sec)
Back transforming the eigenvectors                 ... done (   0.0 sec)
Now organizing SCF variables                       ... done
                      ------------------
                      INITIAL GUESS DONE (   0.4 sec)
                      ------------------
             **** ENERGY FILE WAS UPDATED (geo_opt_tzvp.en.tmp) ****
Finished Guess after   0.5 sec
Maximum memory used throughout the entire GUESS-calculation: 18.3 MB

-------------------------------------------------------------------------------------------
                                      ORCA LEAN-SCF
                              memory conserving SCF solver
-------------------------------------------------------------------------------------------

--------------------
CPCM SOLVATION MODEL
--------------------
CPCM parameters:
  Epsilon                                         ...     INFINITY
  Refrac                                          ...       1.3300
  Rsolv                                           ...       1.3000
  Surface type                                    ... GAUSSIAN VDW
  Discretization scheme                           ... Constant charge density
    Threshold for H atoms                         ...       5.0000 (charges/Ang^2)
    Threshold for non-H atoms                     ...       5.0000 (charges/Ang^2)
  Epsilon function type                           ...         CPCM
Solvent:                                          ... CONDUCTOR
Radii:
  Scheme                                          ... Element-dependent radii
  Radius for C  used is    3.7795 Bohr (=   2.0000 Ang.)
  Radius for O  used is    3.2503 Bohr (=   1.7200 Ang.)
  Radius for H  used is    2.4566 Bohr (=   1.3000 Ang.)
Calculating surface                               ...        done! (  0.0s)
Cavity surface points                             ...          826
Cavity Volume                                     ...     653.1110
Cavity Surface-area                               ...     405.8098
Calculating surface distance matrix               ...        done! (  0.0s)
Performing Cholesky decomposition & store         ...        done! (  0.0s)
Overall time for CPCM initialization              ...                 0.0s

----------------------------------------D-I-I-S--------------------------------------------
Iteration    Energy (Eh)           Delta-E    RMSDP     MaxDP     DIISErr   Damp  Time(sec)
-------------------------------------------------------------------------------------------
               ***  Starting incremental Fock matrix formation  ***
    1    -232.4210057607240003     0.00e+00  1.59e-03  3.75e-02  1.91e-01  0.700   1.3
    2    -232.4809474483586484    -5.99e-02  1.19e-03  2.36e-02  7.22e-02  0.700   1.2
                               ***Turning on AO-DIIS***
    3    -232.5017294338556155    -2.08e-02  4.87e-04  8.07e-03  1.94e-02  0.700   1.2
    4    -232.5144175770690538    -1.27e-02  7.08e-04  1.27e-02  1.07e-02  0.000   1.2
    5    -232.5432294292719178    -2.88e-02  2.44e-04  4.51e-03  1.17e-02  0.000   1.2
                              *** Initializing SOSCF ***
---------------------------------------S-O-S-C-F--------------------------------------
Iteration    Energy (Eh)           Delta-E    RMSDP     MaxDP     MaxGrad    Time(sec)
--------------------------------------------------------------------------------------
    6    -232.5435596284783344    -3.30e-04  9.94e-05  1.68e-03  2.76e-03     1.2
               *** Restarting incremental Fock matrix formation ***
    7    -232.5436034746081475    -4.38e-05  8.06e-05  1.50e-03  2.34e-04     1.3
    8    -232.5436042725895902    -7.98e-07  1.76e-05  4.23e-04  2.63e-04     1.1
    9    -232.5436054548827371    -1.18e-06  1.77e-05  2.88e-04  1.08e-04     1.1
   10    -232.5436055899043879    -1.35e-07  3.63e-06  7.05e-05  6.10e-05     1.1
   11    -232.5436057012822459    -1.11e-07  5.74e-06  1.07e-04  3.08e-05     1.1
   12    -232.5436057285104710    -2.72e-08  1.74e-06  3.16e-05  1.15e-05     1.0
   13    -232.5436057383869581    -9.88e-09  3.80e-07  6.48e-06  2.96e-06     1.0
                 **** Energy Check signals convergence ****

               *****************************************************
               *                     SUCCESS                       *
               *           SCF CONVERGED AFTER  13 CYCLES          *
               *****************************************************

             **** ENERGY FILE WAS UPDATED (geo_opt_tzvp.en.tmp) ****

----------------
TOTAL SCF ENERGY
----------------

Total Energy       :       -232.54360573838696 Eh           -6327.83321 eV

Components:
Nuclear Repulsion  :        189.31131821435449 Eh            5151.42286 eV
Electronic Energy  :       -421.84773236789607 Eh          -11479.06038 eV
One Electron Energy:       -689.45467526623929 Eh          -18761.01551 eV
Two Electron Energy:        267.60694289834322 Eh            7281.95512 eV
CPCM Dielectric    :         -0.00719158484539 Eh              -0.19569 eV

Virial components:
Potential Energy   :       -463.91608024141465 Eh          -12623.79832 eV
Kinetic Energy     :        231.37247450302769 Eh            6295.96511 eV
Virial Ratio       :          2.00506167052876

DFT components:
N(Alpha)           :       20.000018795175 electrons
N(Beta)            :       20.000018795175 electrons
N(Total)           :       40.000037590349 electrons
E(X)               :      -31.877655037235 Eh       
E(C)               :       -1.435885458637 Eh       
E(XC)              :      -33.313540495872 Eh       

CPCM Solvation Model Properties:
Surface-charge          :         -0.02650229323847
Corrected charge        :          0.00000000000000
Outlying charge corr.   :          0.00006313369218 Eh               0.00172 eV
Free-energy (cav+disp)  :  This term is not implemented in the current solvation scheme

---------------
SCF CONVERGENCE
---------------

  Last Energy change         ...    9.8765e-09  Tolerance :   1.0000e-08
  Last MAX-Density change    ...    6.4829e-06  Tolerance :   1.0000e-07
  Last RMS-Density change    ...    3.7985e-07  Tolerance :   5.0000e-09
  Last DIIS Error            ...    2.7581e-03  Tolerance :   5.0000e-07
  Last Orbital Gradient      ...    2.9594e-06  Tolerance :   1.0000e-05
  Last Orbital Rotation      ...    3.1422e-06  Tolerance :   1.0000e-05


----------------
ORBITAL ENERGIES
----------------

  NO   OCC          E(Eh)            E(eV) 
   0   2.0000     -18.766285      -510.6566 
   1   2.0000      -9.934118      -270.3211 
   2   2.0000      -9.934101      -270.3206 
   3   2.0000      -9.893263      -269.2094 
   4   2.0000      -9.893165      -269.2067 
   5   2.0000      -0.935763       -25.4634 
   6   2.0000      -0.709214       -19.2987 
   7   2.0000      -0.664269       -18.0757 
   8   2.0000      -0.531970       -14.4756 
   9   2.0000      -0.528965       -14.3939 
  10   2.0000      -0.446742       -12.1565 
  11   2.0000      -0.437477       -11.9043 
  12   2.0000      -0.381058       -10.3691 
  13   2.0000      -0.377960       -10.2848 
  14   2.0000      -0.352651        -9.5961 
  15   2.0000      -0.311848        -8.4858 
  16   2.0000      -0.307737        -8.3739 
  17   2.0000      -0.288838        -7.8597 
  18   2.0000      -0.281006        -7.6466 
  19   2.0000      -0.208681        -5.6785 
  20   0.0000       0.026459         0.7200 
  21   0.0000       0.054684         1.4880 
  22   0.0000       0.059717         1.6250 
  23   0.0000       0.067378         1.8335 
  24   0.0000       0.079836         2.1724 
  25   0.0000       0.087302         2.3756 
  26   0.0000       0.102222         2.7816 
  27   0.0000       0.111856         3.0438 
  28   0.0000       0.115965         3.1556 
  29   0.0000       0.140527         3.8239 
  30   0.0000       0.153636         4.1806 
*Only the first 10 virtual orbitals were printed.

                    ********************************
                    * MULLIKEN POPULATION ANALYSIS *
                    ********************************

-----------------------
MULLIKEN ATOMIC CHARGES
-----------------------
   0 C :   -0.218854
   1 C :   -0.219024
   2 C :   -0.039029
   3 O :   -0.367520
   4 C :   -0.038799
   5 H :    0.123103
   6 H :    0.113666
   7 H :    0.113862
   8 H :    0.123108
   9 H :    0.095552
  10 H :    0.109173
  11 H :    0.095444
  12 H :    0.109319
Sum of atomic charges:   -0.0000000

--------------------------------
MULLIKEN REDUCED ORBITAL CHARGES
--------------------------------
  0 C s       :     3.245376  s :     3.245376
      pz      :     1.012958  p :     2.892101
      px      :     0.927717
      py      :     0.951425
      dz2     :     0.017213  d :     0.075752
      dxz     :     0.013763
      dyz     :     0.008305
      dx2y2   :     0.011181
      dxy     :     0.025290
      f0      :     0.001018  f :     0.005626
      f+1     :     0.000604
      f-1     :     0.000448
      f+2     :     0.000603
      f-2     :     0.000473
      f+3     :     0.001122
      f-3     :     0.001357

  1 C s       :     3.245334  s :     3.245334
      pz      :     1.022283  p :     2.892313
      px      :     0.931559
      py      :     0.938471
      dz2     :     0.013087  d :     0.075751
      dxz     :     0.012992
      dyz     :     0.012562
      dx2y2   :     0.011425
      dxy     :     0.025685
      f0      :     0.000907  f :     0.005626
      f+1     :     0.000616
      f-1     :     0.000426
      f+2     :     0.000657
      f-2     :     0.000476
      f+3     :     0.001085
      f-3     :     0.001458

  2 C s       :     3.231684  s :     3.231684
      pz      :     1.028950  p :     2.690765
      px      :     0.805106
      py      :     0.856710
      dz2     :     0.009738  d :     0.107473
      dxz     :     0.026904
      dyz     :     0.021407
      dx2y2   :     0.020593
      dxy     :     0.028832
      f0      :     0.001357  f :     0.009107
      f+1     :     0.001067
      f-1     :     0.000528
      f+2     :     0.000662
      f-2     :     0.001385
      f+3     :     0.002140
      f-3     :     0.001968

  3 O s       :     3.785278  s :     3.785278
      pz      :     1.831653  p :     4.545799
      px      :     1.178147
      py      :     1.535999
      dz2     :     0.003951  d :     0.034737
      dxz     :     0.005934
      dyz     :     0.003306
      dx2y2   :     0.007110
      dxy     :     0.014436
      f0      :     0.000208  f :     0.001707
      f+1     :     0.000342
      f-1     :     0.000178
      f+2     :     0.000047
      f-2     :     0.000203
      f+3     :     0.000350
      f-3     :     0.000379

  4 C s       :     3.231400  s :     3.231400
      pz      :     1.025803  p :     2.690813
      px      :     0.821207
      py      :     0.843802
      dz2     :     0.013306  d :     0.107481
      dxz     :     0.025896
      dyz     :     0.018531
      dx2y2   :     0.022434
      dxy     :     0.027313
      f0      :     0.001356  f :     0.009106
      f+1     :     0.000819
      f-1     :     0.000768
      f+2     :     0.000318
      f-2     :     0.001842
      f+3     :     0.001913
      f-3     :     0.002090

  5 H s       :     0.855603  s :     0.855603
      pz      :     0.005076  p :     0.021294
      px      :     0.007021
      py      :     0.009196

  6 H s       :     0.865267  s :     0.865267
      pz      :     0.012321  p :     0.021067
      px      :     0.004414
      py      :     0.004331

  7 H s       :     0.865079  s :     0.865079
      pz      :     0.011659  p :     0.021059
      px      :     0.004423
      py      :     0.004977

  8 H s       :     0.855593  s :     0.855593
      pz      :     0.006083  p :     0.021299
      px      :     0.007370
      py      :     0.007846

  9 H s       :     0.884306  s :     0.884306
      pz      :     0.011199  p :     0.020142
      px      :     0.004772
      py      :     0.004172

 10 H s       :     0.870540  s :     0.870540
      pz      :     0.007570  p :     0.020287
      px      :     0.007869
      py      :     0.004848

 11 H s       :     0.884413  s :     0.884413
      pz      :     0.011354  p :     0.020144
      px      :     0.004850
      py      :     0.003940

 12 H s       :     0.870400  s :     0.870400
      pz      :     0.006857  p :     0.020281
      px      :     0.008181
      py      :     0.005244



                     *******************************
                     * LOEWDIN POPULATION ANALYSIS *
                     *******************************

----------------------
LOEWDIN ATOMIC CHARGES
----------------------
   0 C :   -0.267624
   1 C :   -0.267630
   2 C :   -0.306123
   3 O :    0.087109
   4 C :   -0.306194
   5 H :    0.142287
   6 H :    0.141237
   7 H :    0.141272
   8 H :    0.142267
   9 H :    0.121762
  10 H :    0.124929
  11 H :    0.121753
  12 H :    0.124954

-------------------------------
LOEWDIN REDUCED ORBITAL CHARGES
-------------------------------
  0 C s       :     2.791730  s :     2.791730
      pz      :     1.034578  p :     3.058247
      px      :     1.004515
      py      :     1.019154
      dz2     :     0.098752  d :     0.377613
      dxz     :     0.053463
      dyz     :     0.045584
      dx2y2   :     0.074233
      dxy     :     0.105582
      f0      :     0.004929  f :     0.040034
      f+1     :     0.003743
      f-1     :     0.002975
      f+2     :     0.007211
      f-2     :     0.005868
      f+3     :     0.006683
      f-3     :     0.008625

  1 C s       :     2.791733  s :     2.791733
      pz      :     1.035384  p :     3.058273
      px      :     1.004305
      py      :     1.018584
      dz2     :     0.077070  d :     0.377596
      dxz     :     0.056069
      dyz     :     0.064624
      dx2y2   :     0.078961
      dxy     :     0.100872
      f0      :     0.005045  f :     0.040028
      f+1     :     0.003890
      f-1     :     0.002797
      f+2     :     0.006101
      f-2     :     0.005356
      f+3     :     0.006759
      f-3     :     0.010080

  2 C s       :     2.821061  s :     2.821061
      pz      :     1.060696  p :     2.915685
      px      :     0.875765
      py      :     0.979224
      dz2     :     0.071869  d :     0.503394
      dxz     :     0.124064
      dyz     :     0.071161
      dx2y2   :     0.101966
      dxy     :     0.134334
      f0      :     0.007777  f :     0.065983
      f+1     :     0.005414
      f-1     :     0.005328
      f+2     :     0.005753
      f-2     :     0.011167
      f+3     :     0.015347
      f-3     :     0.015197

  3 O s       :     3.327286  s :     3.327286
      pz      :     1.721542  p :     4.486145
      px      :     1.237907
      py      :     1.526695
      dz2     :     0.009069  d :     0.093571
      dxz     :     0.015997
      dyz     :     0.007672
      dx2y2   :     0.024128
      dxy     :     0.036705
      f0      :     0.000619  f :     0.005890
      f+1     :     0.000707
      f-1     :     0.000274
      f+2     :     0.000169
      f-2     :     0.000884
      f+3     :     0.001876
      f-3     :     0.001362

  4 C s       :     2.821069  s :     2.821069
      pz      :     1.064913  p :     2.915694
      px      :     0.887685
      py      :     0.963096
      dz2     :     0.078315  d :     0.503453
      dxz     :     0.115626
      dyz     :     0.072536
      dx2y2   :     0.097867
      dxy     :     0.139109
      f0      :     0.007579  f :     0.065978
      f+1     :     0.005217
      f-1     :     0.006824
      f+2     :     0.004195
      f-2     :     0.011892
      f+3     :     0.014627
      f-3     :     0.015644

  5 H s       :     0.798410  s :     0.798410
      pz      :     0.015829  p :     0.059304
      px      :     0.018922
      py      :     0.024552

  6 H s       :     0.800009  s :     0.800009
      pz      :     0.033480  p :     0.058754
      px      :     0.012670
      py      :     0.012605

  7 H s       :     0.799975  s :     0.799975
      pz      :     0.032495  p :     0.058753
      px      :     0.012668
      py      :     0.013590

  8 H s       :     0.798428  s :     0.798428
      pz      :     0.018769  p :     0.059305
      px      :     0.019771
      py      :     0.020765

  9 H s       :     0.820314  s :     0.820314
      pz      :     0.033176  p :     0.057923
      px      :     0.013023
      py      :     0.011725

 10 H s       :     0.816972  s :     0.816972
      pz      :     0.023508  p :     0.058099
      px      :     0.021339
      py      :     0.013251

 11 H s       :     0.820317  s :     0.820317
      pz      :     0.033300  p :     0.057929
      px      :     0.013226
      py      :     0.011403

 12 H s       :     0.816951  s :     0.816951
      pz      :     0.021445  p :     0.058095
      px      :     0.022151
      py      :     0.014498



                      *****************************
                      * MAYER POPULATION ANALYSIS *
                      *****************************

  NA   - Mulliken gross atomic population
  ZA   - Total nuclear charge
  QA   - Mulliken gross atomic charge
  VA   - Mayer's total valence
  BVA  - Mayer's bonded valence
  FA   - Mayer's free valence

  ATOM       NA         ZA         QA         VA         BVA        FA
  0 C      6.2189     6.0000    -0.2189     3.9173     3.9173     0.0000
  1 C      6.2190     6.0000    -0.2190     3.9170     3.9170     0.0000
  2 C      6.0390     6.0000    -0.0390     3.9422     3.9422     0.0000
  3 O      8.3675     8.0000    -0.3675     1.9885     1.9885    -0.0000
  4 C      6.0388     6.0000    -0.0388     3.9418     3.9418     0.0000
  5 H      0.8769     1.0000     0.1231     0.9686     0.9686    -0.0000
  6 H      0.8863     1.0000     0.1137     0.9668     0.9668     0.0000
  7 H      0.8861     1.0000     0.1139     0.9667     0.9667    -0.0000
  8 H      0.8769     1.0000     0.1231     0.9686     0.9686     0.0000
  9 H      0.9044     1.0000     0.0956     0.9561     0.9561    -0.0000
 10 H      0.8908     1.0000     0.1092     0.9547     0.9547    -0.0000
 11 H      0.9046     1.0000     0.0954     0.9562     0.9562     0.0000
 12 H      0.8907     1.0000     0.1093     0.9546     0.9546    -0.0000

  Mayer bond orders larger than 0.100000
B(  0-C ,  1-C ) :   0.9771 B(  0-C ,  4-C ) :   1.0157 B(  0-C ,  5-H ) :   0.9473 
B(  0-C ,  6-H ) :   0.9528 B(  1-C ,  2-C ) :   1.0158 B(  1-C ,  7-H ) :   0.9528 
B(  1-C ,  8-H ) :   0.9474 B(  2-C ,  3-O ) :   0.9885 B(  2-C ,  9-H ) :   0.9533 
B(  2-C , 10-H ) :   0.9416 B(  3-O ,  4-C ) :   0.9886 B(  4-C , 11-H ) :   0.9533 
B(  4-C , 12-H ) :   0.9415 

-------
TIMINGS
-------

Total SCF time: 0 days 0 hours 0 min 15 sec 

Total time                  ....      15.090 sec
Sum of individual times     ....      14.999 sec  ( 99.4%)

SCF preparation             ....       0.085 sec  (  0.6%)
Fock matrix formation       ....      14.667 sec  ( 97.2%)
  Startup                   ....       0.009 sec  (  0.1% of F)
  Split-RI-J                ....       3.091 sec  ( 21.1% of F)
  XC integration            ....       8.216 sec  ( 56.0% of F)
    Basis function eval.    ....       2.530 sec  ( 30.8% of XC)
    Density eval.           ....       1.723 sec  ( 21.0% of XC)
    XC-Functional eval.     ....       0.472 sec  (  5.7% of XC)
    XC-Potential eval.      ....       3.211 sec  ( 39.1% of XC)
  CPCM terms                ....       3.290 sec  ( 22.4% of F)
Diagonalization             ....       0.000 sec  (  0.0%)
Density matrix formation    ....       0.034 sec  (  0.2%)
Total Energy calculation    ....       0.011 sec  (  0.1%)
Population analysis         ....       0.015 sec  (  0.1%)
Orbital Transformation      ....       0.016 sec  (  0.1%)
Orbital Orthonormalization  ....       0.000 sec  (  0.0%)
DIIS solution               ....       0.099 sec  (  0.7%)
SOSCF solution              ....       0.072 sec  (  0.5%)
Finished LeanSCF after  15.1 sec

Maximum memory used throughout the entire LEANSCF-calculation: 20.7 MB

-------------------------   --------------------
FINAL SINGLE POINT ENERGY      -232.543605738387
-------------------------   --------------------

------------------------------------------------------------------------------
                         ORCA SCF GRADIENT CALCULATION
------------------------------------------------------------------------------

Nuc. rep. gradient        (SHARK) ... done (  0.0 sec)
HCore & Overlap gradient  (SHARK) ... done (  0.2 sec)
Split-RIJ-J gradient      (SHARK) ... done (  1.0 sec)
XC gradient                       ... done (  3.5 sec)
CPCM gradient                     ... done (  0.4 sec)

------------------
CARTESIAN GRADIENT
------------------

   1   C   :   -0.000151538   -0.000279067    0.000306897
   2   C   :    0.000175949   -0.000306608   -0.000232746
   3   C   :    0.000755694   -0.000604080    0.000318482
   4   O   :   -0.000043661    0.001835030   -0.000209295
   5   C   :   -0.000732019   -0.000700281   -0.000163508
   6   H   :    0.000032054    0.000060417   -0.000063918
   7   H   :   -0.000011767    0.000001784   -0.000080252
   8   H   :    0.000011036    0.000032319    0.000068270
   9   H   :   -0.000027653    0.000062131    0.000023747
  10   H   :   -0.000066950   -0.000014628   -0.000103970
  11   H   :   -0.000103942   -0.000050434   -0.000005068
  12   H   :    0.000062888    0.000023591    0.000112939
  13   H   :    0.000099910   -0.000060172    0.000028421

Difference to translation invariance:
           :    0.0000000000    0.0000000000    0.0000000000

Difference to rotation invariance:
           :    0.0001943230   -0.0000119235    0.0001354551

Norm of the Cartesian gradient     ...    0.0024422377
RMS gradient                       ...    0.0003910710
MAX gradient                       ...    0.0018350300

-------
TIMINGS
-------

Total SCF gradient time     ....        5.446 sec

Densities                   ....       0.000 sec  (  0.0%)
One electron gradient       ....       0.158 sec  (  2.9%)
RI-J Coulomb gradient       ....       1.037 sec  ( 19.0%)
XC gradient                 ....       3.497 sec  ( 64.2%)
CPCM gradient               ....       0.400 sec  (  7.3%)
   A-Matrix (El+Nuc)        ....       0.024 sec  (  0.4%)
   Potential                ....       0.376 sec  (  6.9%)

Maximum memory used throughout the entire SCFGRAD-calculation: 27.1 MB
------------------------------------------------------------------------------
                         ORCA GEOMETRY RELAXATION STEP
------------------------------------------------------------------------------

Reading the OPT-File                    .... done
Getting information on internals        .... done
Copying old internal coords+grads       .... done
Making the new internal coordinates     .... (2022 redundants) done
Validating the new internal coordinates .... (2022 redundants) done
Calculating the B-matrix                .... done
Calculating the G,G- and P matrices     .... done
Transforming gradient to internals      .... done
Projecting the internal gradient        .... done
Number of atoms                         ....  13
Number of internal coordinates          ....  62
Current Energy                          ....  -232.543605738 Eh
Current gradient norm                   ....     0.002442238 Eh/bohr
Maximum allowed component of the step   ....  0.300
Current trust radius                    ....  0.300
Evaluating the initial hessian          ....  (Almloef) done
Projecting the Hessian                  .... done
Forming the augmented Hessian           .... done
Diagonalizing the augmented Hessian     .... done
Last element of RFO vector              ....  0.999987524
Lowest eigenvalues of augmented Hessian:
 -0.000007537  0.014261181  0.014759214  0.072643071  0.080895427
Length of the computed step             ....  0.004995313
The final length of the internal step   ....  0.004995313
Converting the step to Cartesian space:
 Initial RMS(Int)=    0.0006344054
Transforming coordinates:
 Iter   0:  RMS(Cart)=    0.0008543466 RMS(Int)=    0.0006343800
done
Storing new coordinates                 .... done

                                .--------------------.
          ----------------------|Geometry convergence|-------------------------
          Item                value                   Tolerance       Converged
          ---------------------------------------------------------------------
          RMS gradient        0.0002223024            0.0001000000      NO
          MAX gradient        0.0010381066            0.0003000000      NO
          RMS step            0.0006344054            0.0020000000      YES
          MAX step            0.0023705733            0.0040000000      YES
          ........................................................
          Max(Bonds)      0.0013      Max(Angles)    0.10
          Max(Dihed)        0.05      Max(Improp)    0.00
          ---------------------------------------------------------------------

The optimization has not yet converged - more geometry cycles are needed


    ---------------------------------------------------------------------------
                         Redundant Internal Coordinates
                            (Angstroem and degrees)

        Definition                    Value    dE/dq     Step     New-Value
    ----------------------------------------------------------------------------
     1. B(C   1,C   0)                1.5370  0.000139 -0.0002    1.5368   
     2. B(C   2,C   1)                1.5289  0.000200 -0.0003    1.5286   
     3. B(O   3,C   2)                1.4550  0.001033 -0.0012    1.4538   
     4. B(C   4,O   3)                1.4551  0.001038 -0.0013    1.4538   
     5. B(C   4,C   0)                1.5288  0.000202 -0.0003    1.5285   
     6. B(H   5,C   0)                1.0981 -0.000044  0.0001    1.0981   
     7. B(H   6,C   0)                1.1004 -0.000076  0.0001    1.1006   
     8. B(H   7,C   1)                1.1005 -0.000077  0.0001    1.1006   
     9. B(H   8,C   1)                1.0981 -0.000041  0.0001    1.0981   
    10. B(H   9,C   2)                1.1044 -0.000125  0.0002    1.1046   
    11. B(H  10,C   2)                1.1002 -0.000081  0.0001    1.1003   
    12. B(H  11,C   4)                1.1044 -0.000127  0.0002    1.1046   
    13. B(H  12,C   4)                1.1002 -0.000080  0.0001    1.1003   
    14. A(H   5,C   0,H   6)          108.41  0.000034   -0.01    108.40   
    15. A(C   1,C   0,C   4)          101.87  0.000067   -0.01    101.86   
    16. A(C   4,C   0,H   5)          112.31 -0.000046    0.02    112.32   
    17. A(C   1,C   0,H   5)          113.22 -0.000046    0.01    113.23   
    18. A(C   1,C   0,H   6)          110.41  0.000014   -0.01    110.41   
    19. A(C   4,C   0,H   6)          110.53 -0.000023   -0.00    110.53   
    20. A(C   2,C   1,H   8)          112.32 -0.000071    0.01    112.33   
    21. A(C   0,C   1,H   8)          113.24 -0.000033    0.01    113.25   
    22. A(C   2,C   1,H   7)          110.54 -0.000029    0.00    110.54   
    23. A(C   0,C   1,H   7)          110.40  0.000019   -0.01    110.39   
    24. A(H   7,C   1,H   8)          108.38  0.000053   -0.01    108.37   
    25. A(C   0,C   1,C   2)          101.88  0.000060   -0.01    101.88   
    26. A(H   9,C   2,H  10)          108.64  0.000056   -0.01    108.63   
    27. A(C   1,C   2,O   3)          106.31  0.000291   -0.05    106.26   
    28. A(C   1,C   2,H  10)          113.37 -0.000115    0.03    113.40   
    29. A(O   3,C   2,H   9)          108.87 -0.000091    0.01    108.88   
    30. A(C   1,C   2,H   9)          111.25 -0.000052    0.00    111.25   
    31. A(O   3,C   2,H  10)          108.26 -0.000090    0.02    108.28   
    32. A(C   2,O   3,C   4)          109.06 -0.000694    0.10    109.16   
    33. A(H  11,C   4,H  12)          108.63  0.000052   -0.01    108.63   
    34. A(O   3,C   4,H  12)          108.26 -0.000081    0.02    108.28   
    35. A(C   0,C   4,H  12)          113.37 -0.000116    0.03    113.40   
    36. A(O   3,C   4,H  11)          108.88 -0.000092    0.01    108.89   
    37. A(C   0,C   4,H  11)          111.26 -0.000049    0.00    111.26   
    38. A(C   0,C   4,O   3)          106.30  0.000285   -0.05    106.25   
    39. D(C   2,C   1,C   0,C   4)     37.47  0.000007    0.02     37.49   
    40. D(H   7,C   1,C   0,H   6)    162.61 -0.000014    0.04    162.65   
    41. D(H   7,C   1,C   0,C   4)    -79.97  0.000001    0.03    -79.94   
    42. D(H   7,C   1,C   0,H   5)     40.85 -0.000035    0.05     40.90   
    43. D(C   2,C   1,C   0,H   5)    158.29 -0.000029    0.04    158.33   
    44. D(C   2,C   1,C   0,H   6)    -79.96 -0.000008    0.03    -79.93   
    45. D(O   3,C   2,C   1,C   0)    -31.30 -0.000047   -0.00    -31.31   
    46. D(H   9,C   2,C   1,H   8)    -34.40  0.000029   -0.04    -34.44   
    47. D(H   9,C   2,C   1,C   0)     87.08 -0.000009   -0.02     87.06   
    48. D(O   3,C   2,C   1,H   8)   -152.78 -0.000008   -0.02   -152.80   
    49. D(O   3,C   2,C   1,H   7)     86.03 -0.000006   -0.02     86.01   
    50. D(H   9,C   2,C   1,H   7)   -155.58  0.000031   -0.04   -155.62   
    51. D(C   4,O   3,C   2,H  10)    134.33 -0.000015    0.01    134.34   
    52. D(C   4,O   3,C   2,H   9)   -107.74 -0.000050    0.02   -107.72   
    53. D(C   4,O   3,C   2,C   1)     12.20  0.000004   -0.00     12.20   
    54. D(H  12,C   4,O   3,C   2)    134.44 -0.000023    0.03    134.47   
    55. D(C   0,C   4,O   3,C   2)     12.32 -0.000004    0.02     12.34   
    56. D(H  11,C   4,C   0,H   6)   -155.64  0.000031   -0.05   -155.68   
    57. D(H  11,C   4,C   0,H   5)    -34.43  0.000026   -0.05    -34.48   
    58. D(H  11,C   4,C   0,C   1)     87.02 -0.000010   -0.03     86.99   
    59. D(O   3,C   4,C   0,H   6)     85.97 -0.000003   -0.03     85.94   
    60. D(H  11,C   4,O   3,C   2)   -107.63 -0.000058    0.04   -107.59   
    61. D(O   3,C   4,C   0,H   5)   -152.82 -0.000008   -0.03   -152.85   
    62. D(O   3,C   4,C   0,C   1)    -31.37 -0.000044   -0.01    -31.39   
    ----------------------------------------------------------------------------

Geometry step timings:
Preparation and reading OPT file:      0.000 s ( 5.215 %)
Internal coordinates            :      0.000 s ( 2.674 %)
B/P matrices and projection     :      0.001 s (11.299 %)
Hessian update/contruction      :      0.002 s (31.757 %)
Making the step                 :      0.001 s ( 8.624 %)
Converting the step to Cartesian:      0.000 s ( 2.424 %)
Storing new data                :      0.000 s ( 2.474 %)
Checking convergence            :      0.000 s ( 0.100 %)
Final printing                  :      0.002 s (35.183 %)
Total time                      :      0.006 s

Time for energy+gradient        :     21.782 s
Time for complete geometry iter :     21.826 s

         *************************************************************
         *                GEOMETRY OPTIMIZATION CYCLE   2            *
         *************************************************************
---------------------------------
CARTESIAN COORDINATES (ANGSTROEM)
---------------------------------
  C     -0.706151   -0.740925    0.334303
  C      0.745736   -0.757784   -0.169238
  C      1.162658    0.700113    0.023998
  O     -0.039686    1.495520   -0.163519
  C     -1.197461    0.616256   -0.168758
  H     -1.308935   -1.572769   -0.053751
  H     -0.731369   -0.777144    1.433979
  H      0.778835   -1.030865   -1.234895
  H      1.389172   -1.452909    0.386362
  H      1.550761    0.873821    1.043438
  H      1.917184    1.038641   -0.701789
  H     -1.586983    0.544073   -1.199835
  H     -1.973763    1.063972    0.469705

----------------------------
CARTESIAN COORDINATES (A.U.)
----------------------------
  NO LB      ZA    FRAG     MASS         X           Y           Z
   0 C     6.0000    0    12.011   -1.334432   -1.400146    0.631741
   1 C     6.0000    0    12.011    1.409237   -1.432004   -0.319813
   2 C     6.0000    0    12.011    2.197105    1.323022    0.045349
   3 O     8.0000    0    15.999   -0.074995    2.826123   -0.309005
   4 C     6.0000    0    12.011   -2.262873    1.164555   -0.318906
   5 H     1.0000    0     1.008   -2.473528   -2.972103   -0.101576
   6 H     1.0000    0     1.008   -1.382087   -1.468590    2.709827
   7 H     1.0000    0     1.008    1.471785   -1.948053   -2.333613
   8 H     1.0000    0     1.008    2.625155   -2.745599    0.730119
   9 H     1.0000    0     1.008    2.930514    1.651282    1.971813
  10 H     1.0000    0     1.008    3.622954    1.962747   -1.326190
  11 H     1.0000    0     1.008   -2.998962    1.028149   -2.267360
  12 H     1.0000    0     1.008   -3.729872    2.010616    0.887615

--------------------------------
INTERNAL COORDINATES (ANGSTROEM)
--------------------------------
 C      0   0   0     0.000000000000     0.00000000     0.00000000
 C      1   0   0     1.536819597598     0.00000000     0.00000000
 C      2   1   0     1.528602835987   101.87586909     0.00000000
 O      3   2   1     1.453776360872   106.25682067   328.69468490
 C      4   3   2     1.453814358978   109.15942817    12.19909537
 H      1   2   3     1.098134168002   113.23396753   158.32852690
 H      1   2   3     1.100560854211   110.40622408   280.07371466
 H      2   1   3     1.100587901814   110.38860108   242.57157777
 H      2   1   3     1.098134841677   113.24869944   120.85862762
 H      3   2   1     1.104562198505   111.25346918    87.05998092
 H      3   2   1     1.100308329460   113.39602608   209.86352584
 H      5   4   3     1.104562509190   108.88839312   252.41211875
 H      5   4   3     1.100332184723   108.28076171   134.46948076

---------------------------
INTERNAL COORDINATES (A.U.)
---------------------------
 C      0   0   0     0.000000000000     0.00000000     0.00000000
 C      1   0   0     2.904168156704     0.00000000     0.00000000
 C      2   1   0     2.888640727551   101.87586909     0.00000000
 O      3   2   1     2.747239182016   106.25682067   328.69468490
 C      4   3   2     2.747310988031   109.15942817    12.19909537
 H      1   2   3     2.075172835825   113.23396753   158.32852690
 H      1   2   3     2.079758608174   110.40622408   280.07371466
 H      2   1   3     2.079809720735   110.38860108   242.57157777
 H      2   1   3     2.075174108887   113.24869944   120.85862762
 H      3   2   1     2.087320053056   111.25346918    87.05998092
 H      3   2   1     2.079281405552   113.39602608   209.86352584
 H      5   4   3     2.087320640166   108.88839312   252.41211875
 H      5   4   3     2.079326485466   108.28076171   134.46948076

------------------------------------------------------------------------------
                   ___                                                        
                  /   \      - P O W E R E D   B Y -                         
                 /     \                                                     
                 |  |  |   _    _      __       _____    __    __             
                 |  |  |  | |  | |    /  \     |  _  \  |  |  /  |          
                  \  \/   | |  | |   /    \    | | | |  |  | /  /          
                 / \  \   | |__| |  /  /\  \   | |_| |  |  |/  /          
                |  |  |   |  __  | /  /__\  \  |    /   |      \           
                |  |  |   | |  | | |   __   |  |    \   |  |\   \          
                \     /   | |  | | |  |  |  |  | |\  \  |  | \   \       
                 \___/    |_|  |_| |__|  |__|  |_| \__\ |__|  \__/        
                                                                              
                      - O R C A' S   B I G   F R I E N D -                    
                                      &                                       
                       - I N T E G R A L  F E E D E R -                       
                                                                              
 v1 FN, 2020, v2 2021, v3 2022-2024                                           
------------------------------------------------------------------------------


----------------------
SHARK INTEGRAL PACKAGE
----------------------

Number of atoms                             ...     13
Number of basis functions                   ...    203
Number of shells                            ...     87
Maximum angular momentum                    ...      3
Integral batch strategy                     ... SHARK/LIBINT Hybrid
RI-J (if used) integral strategy            ... SPLIT-RIJ (Revised 2003 algorithm where possible)
Printlevel                                  ...      1
Contraction scheme used                     ... SEGMENTED contraction
Prescreening option                         ... SCHWARTZ
   Thresh                                   ... 2.500e-11
   Tcut                                     ... 2.500e-12
   Tpresel                                  ... 2.500e-12 
Coulomb Range Separation                    ... NOT USED
Exchange Range Separation                   ... NOT USED
Multipole approximations                    ... NOT USED
Finite Nucleus Model                        ... NOT USED
CABS basis                                  ... NOT available
Auxiliary Coulomb fitting basis             ... AVAILABLE
   # of basis functions in Aux-J            ...    333
   # of shells in Aux-J                     ...    115
   Maximum angular momentum in Aux-J        ...      4
Auxiliary J/K fitting basis                 ... NOT available
Auxiliary Correlation fitting basis         ... NOT available
Auxiliary 'external' fitting basis          ... NOT available

Checking pre-screening integrals            ... done (  0.0 sec) Dimension = 87
Check shell pair data                       ... done (  0.0 sec)
Shell pair information
Shell pair cut-off parameter TPreSel        ...   2.5e-12
Total number of shell pairs                 ...      3828
Shell pairs after pre-screening             ...      3747
Total number of primitive shell pairs       ...     11160
Primitive shell pairs kept                  ...      8874
          la=0 lb=0:   1160 shell pairs
          la=1 lb=0:   1115 shell pairs
          la=1 lb=1:    276 shell pairs
          la=2 lb=0:    486 shell pairs
          la=2 lb=1:    230 shell pairs
          la=2 lb=2:     55 shell pairs
          la=3 lb=0:    245 shell pairs
          la=3 lb=1:    115 shell pairs
          la=3 lb=2:     50 shell pairs
          la=3 lb=3:     15 shell pairs

Calculating one electron integrals          ... done (  0.0 sec)
Calculating RI/J V-Matrix + Cholesky decomp.... done (  0.0 sec)
Calculating Nuclear repulsion               ... done (  0.0 sec) ENN=    189.376829239468 Eh

Diagonalization of the overlap matrix:
Smallest eigenvalue                        ... 1.914e-04
Time for diagonalization                   ...    0.004 sec
Threshold for overlap eigenvalues          ... 1.000e-07
Number of eigenvalues below threshold      ... 0
Time for construction of square roots      ...    0.003 sec
Total time needed                          ...    0.007 sec

-------------------
DFT GRID GENERATION
-------------------

General Integration Accuracy     IntAcc      ... 4.388
Radial Grid Type                 RadialGrid  ... OptM3 with GC (2021)
Angular Grid (max. ang.)         AngularGrid ... 4 (Lebedev-302)
Angular grid pruning method      GridPruning ... 4 (adaptive)
Weight generation scheme         WeightScheme... mBecke (2022)
Basis function cutoff            BFCut       ... 1.0000e-11
Integration weight cutoff        WCut        ... 1.0000e-14
Partially contracted basis set               ... off
Rotationally invariant grid construction     ... off
Angular grids for H and He will be reduced by one unit

Total number of grid points                  ...    55884
Total number of batches                      ...      878
Average number of points per batch           ...       63
Average number of grid points per atom       ...     4299
Initializing property integral containers    ... done (  0.0 sec)

SHARK setup successfully completed in   0.6 seconds

Maximum memory used throughout the entire STARTUP-calculation: 30.2 MB
Occupation numbers will be reassigned to an Aufbau configuration
             **** ENERGY FILE WAS UPDATED (geo_opt_tzvp.en.tmp) ****
Finished Guess after   0.1 sec
Maximum memory used throughout the entire GUESS-calculation: 16.7 MB
--------------------
CPCM SOLVATION MODEL
--------------------
CPCM parameters:
  Epsilon                                         ...     INFINITY
  Refrac                                          ...       1.3300
  Rsolv                                           ...       1.3000
  Surface type                                    ... GAUSSIAN VDW
  Discretization scheme                           ... Constant charge density
    Threshold for H atoms                         ...       5.0000 (charges/Ang^2)
    Threshold for non-H atoms                     ...       5.0000 (charges/Ang^2)
  Epsilon function type                           ...         CPCM
Solvent:                                          ... CONDUCTOR
Radii:
  Scheme                                          ... Element-dependent radii
  Radius for C  used is    3.7795 Bohr (=   2.0000 Ang.)
  Radius for O  used is    3.2503 Bohr (=   1.7200 Ang.)
  Radius for H  used is    2.4566 Bohr (=   1.3000 Ang.)
Calculating surface                               ...        done! (  0.0s)
Cavity surface points                             ...          825
Cavity Volume                                     ...     652.9498
Cavity Surface-area                               ...     405.7276
Calculating surface distance matrix               ...        done! (  0.0s)
Performing Cholesky decomposition & store         ...        done! (  0.0s)
Overall time for CPCM initialization              ...                 0.0s

----------------------------------------D-I-I-S--------------------------------------------
Iteration    Energy (Eh)           Delta-E    RMSDP     MaxDP     DIISErr   Damp  Time(sec)
-------------------------------------------------------------------------------------------
               ***  Starting incremental Fock matrix formation  ***
                              *** Initializing SOSCF ***
---------------------------------------S-O-S-C-F--------------------------------------
Iteration    Energy (Eh)           Delta-E    RMSDP     MaxDP     MaxGrad    Time(sec)
--------------------------------------------------------------------------------------
    1    -232.5436094365863653     0.00e+00  1.11e-05  2.43e-04  6.09e-05     1.3
               *** Restarting incremental Fock matrix formation ***
    2    -232.5436109346845512    -1.50e-06  1.11e-05  2.55e-04  8.46e-05     1.3
    3    -232.5436107715725313     1.63e-07  5.36e-06  1.64e-04  1.57e-04     1.0
    4    -232.5436111103913106    -3.39e-07  1.44e-06  2.56e-05  1.21e-05     1.0
    5    -232.5436111125696073    -2.18e-09  5.53e-07  1.13e-05  9.45e-06     1.0
                 **** Energy Check signals convergence ****

               *****************************************************
               *                     SUCCESS                       *
               *           SCF CONVERGED AFTER   5 CYCLES          *
               *****************************************************

             **** ENERGY FILE WAS UPDATED (geo_opt_tzvp.en.tmp) ****

----------------
TOTAL SCF ENERGY
[...]
  24   0.0000       0.046181         1.2566 
  25   0.0000       0.057640         1.5685 
  26   0.0000       0.073717         2.0059 
  27   0.0000       0.079326         2.1586 
  28   0.0000       0.083397         2.2693 
  29   0.0000       0.100130         2.7247 
  30   0.0000       0.105509         2.8711 
*Only the first 10 virtual orbitals were printed.

                    ********************************
                    * MULLIKEN POPULATION ANALYSIS *
                    ********************************

-----------------------
MULLIKEN ATOMIC CHARGES
-----------------------
   0 C :   -0.461261
   1 C :   -0.461518
   2 C :   -0.408285
   3 O :   -0.447212
   4 C :   -0.406204
   5 H :    0.302945
   6 H :    0.273919
   7 H :    0.274178
   8 H :    0.302397
   9 H :    0.254604
  10 H :    0.260889
  11 H :    0.254547
  12 H :    0.261001
Sum of atomic charges:   -0.0000000

--------------------------------
MULLIKEN REDUCED ORBITAL CHARGES
--------------------------------
  0 C s       :     3.257294  s :     3.257294
      pz      :     1.142891  p :     3.159594
      px      :     1.009852
      py      :     1.006850
      dz2     :     0.010867  d :     0.038832
      dxz     :    -0.000853
      dyz     :    -0.008287
      dx2y2   :     0.009578
      dxy     :     0.027528
      f0      :     0.000977  f :     0.005540
      f+1     :     0.000612
      f-1     :     0.000448
      f+2     :     0.000612
      f-2     :     0.000429
      f+3     :     0.001090
      f-3     :     0.001372

  1 C s       :     3.256824  s :     3.256824
      pz      :     1.167604  p :     3.160167
      px      :     1.015083
      py      :     0.977481
      dz2     :     0.000074  d :     0.038986
      dxz     :     0.004240
      dyz     :     0.001120
      dx2y2   :     0.008098
      dxy     :     0.025453
      f0      :     0.000885  f :     0.005541
      f+1     :     0.000620
      f-1     :     0.000414
      f+2     :     0.000657
      f-2     :     0.000425
      f+3     :     0.001057
      f-3     :     0.001483

  2 C s       :     3.386315  s :     3.386315
      pz      :     1.126123  p :     2.869992
      px      :     0.861081
      py      :     0.882789
      dz2     :     0.015912  d :     0.142498
      dxz     :     0.055353
      dyz     :     0.014914
      dx2y2   :     0.029505
      dxy     :     0.026815
      f0      :     0.001372  f :     0.009480
      f+1     :     0.001084
      f-1     :     0.000507
      f+2     :     0.000655
      f-2     :     0.001435
      f+3     :     0.002345
      f-3     :     0.002082

  3 O s       :     3.862380  s :     3.862380
      pz      :     1.859278  p :     4.539872
      px      :     1.188661
      py      :     1.491933
      dz2     :     0.003782  d :     0.043268
      dxz     :     0.024479
      dyz     :     0.003450
      dx2y2   :     0.001186
      dxy     :     0.010372
      f0      :     0.000214  f :     0.001692
      f+1     :     0.000341
      f-1     :     0.000171
      f+2     :     0.000048
      f-2     :     0.000207
      f+3     :     0.000354
      f-3     :     0.000357

  4 C s       :     3.385597  s :     3.385597
      pz      :     1.126492  p :     2.868909
      px      :     0.882799
      py      :     0.859618
      dz2     :     0.007676  d :     0.142217
      dxz     :     0.046222
      dyz     :     0.026091
      dx2y2   :     0.031690
      dxy     :     0.030538
      f0      :     0.001354  f :     0.009480
      f+1     :     0.000851
      f-1     :     0.000753
      f+2     :     0.000317
      f-2     :     0.001905
      f+3     :     0.002090
      f-3     :     0.002210

  5 H s       :     0.632505  s :     0.632505
      pz      :     0.005470  p :     0.064550
      px      :     0.031042
      py      :     0.028038

  6 H s       :     0.683751  s :     0.683751
      pz      :     0.037893  p :     0.042329
      px      :     0.003235
      py      :     0.001201

  7 H s       :     0.683535  s :     0.683535
      pz      :     0.037474  p :     0.042287
      px      :     0.003296
      py      :     0.001516

  8 H s       :     0.632917  s :     0.632917
      pz      :     0.010075  p :     0.064686
      px      :     0.031745
      py      :     0.022865

  9 H s       :     0.696192  s :     0.696192
      pz      :     0.027517  p :     0.049204
      px      :     0.016632
      py      :     0.005055

 10 H s       :     0.681978  s :     0.681978
      pz      :     0.013857  p :     0.057133
      px      :     0.028045
      py      :     0.015231

 11 H s       :     0.696140  s :     0.696140
      pz      :     0.029327  p :     0.049313
      px      :     0.016496
      py      :     0.003490

 12 H s       :     0.681943  s :     0.681943
      pz      :     0.009735  p :     0.057056
      px      :     0.028728
      py      :     0.018593



                     *******************************
                     * LOEWDIN POPULATION ANALYSIS *
                     *******************************

----------------------
LOEWDIN ATOMIC CHARGES
----------------------
   0 C :   -0.175128
   1 C :   -0.175107
   2 C :   -0.210388
   3 O :   -0.169948
   4 C :   -0.210528
   5 H :    0.116703
   6 H :    0.117634
   7 H :    0.117644
   8 H :    0.116673
   9 H :    0.118325
  10 H :    0.117868
  11 H :    0.118345
  12 H :    0.117907

-------------------------------
LOEWDIN REDUCED ORBITAL CHARGES
-------------------------------
  0 C s       :     2.686246  s :     2.686246
      pz      :     0.935197  p :     2.758411
      px      :     0.907523
      py      :     0.915691
      dz2     :     0.165814  d :     0.689549
      dxz     :     0.110782
      dyz     :     0.089813
      dx2y2   :     0.132223
      dxy     :     0.190917
      f0      :     0.005653  f :     0.040923
      f+1     :     0.003731
      f-1     :     0.002951
      f+2     :     0.007152
      f-2     :     0.005793
      f+3     :     0.007287
      f-3     :     0.008354

  1 C s       :     2.686249  s :     2.686249
      pz      :     0.936089  p :     2.758419
      px      :     0.908326
      py      :     0.914004
      dz2     :     0.131306  d :     0.689525
      dxz     :     0.113176
      dyz     :     0.119654
      dx2y2   :     0.139562
      dxy     :     0.185827
      f0      :     0.005484  f :     0.040913
      f+1     :     0.003877
      f-1     :     0.003075
      f+2     :     0.006082
      f-2     :     0.005348
      f+3     :     0.007260
      f-3     :     0.009788

  2 C s       :     2.695576  s :     2.695576
      pz      :     0.943263  p :     2.626985
      px      :     0.806954
      py      :     0.876768
      dz2     :     0.113082  d :     0.819508
      dxz     :     0.187936
      dyz     :     0.129492
      dx2y2   :     0.183137
      dxy     :     0.205862
      f0      :     0.008128  f :     0.068319
      f+1     :     0.006250
      f-1     :     0.005504
      f+2     :     0.005797
      f-2     :     0.011173
      f+3     :     0.015584
      f-3     :     0.015883

  3 O s       :     3.257279  s :     3.257279
      pz      :     1.648190  p :     4.386998
      px      :     1.251806
      py      :     1.487002
      dz2     :     0.048301  d :     0.519498
      dxz     :     0.117848
      dyz     :     0.050123
      dx2y2   :     0.162202
      dxy     :     0.141023
      f0      :     0.000641  f :     0.006172
      f+1     :     0.000733
      f-1     :     0.000316
      f+2     :     0.000163
      f-2     :     0.000967
      f+3     :     0.001900
      f-3     :     0.001453

  4 C s       :     2.695568  s :     2.695568
      pz      :     0.946187  p :     2.626988
      px      :     0.817070
      py      :     0.863731
      dz2     :     0.127029  d :     0.819650
      dxz     :     0.177348
      dyz     :     0.127965
      dx2y2   :     0.176378
      dxy     :     0.210931
      f0      :     0.008032  f :     0.068323
      f+1     :     0.005900
      f-1     :     0.006863
      f+2     :     0.004259
      f-2     :     0.012144
      f+3     :     0.014932
      f-3     :     0.016193

  5 H s       :     0.685915  s :     0.685915
      pz      :     0.060013  p :     0.197382
      px      :     0.061994
      py      :     0.075375

  6 H s       :     0.682478  s :     0.682478
      pz      :     0.099156  p :     0.199887
      px      :     0.049960
      py      :     0.050771

  7 H s       :     0.682444  s :     0.682444
      pz      :     0.098115  p :     0.199912
      px      :     0.050100
      py      :     0.051698

  8 H s       :     0.685932  s :     0.685932
      pz      :     0.066293  p :     0.197395
      px      :     0.064154
      py      :     0.066947

  9 H s       :     0.690239  s :     0.690239
      pz      :     0.098503  p :     0.191436
      px      :     0.046179
      py      :     0.046753

 10 H s       :     0.692785  s :     0.692785
      pz      :     0.076138  p :     0.189347
      px      :     0.064091
      py      :     0.049118

 11 H s       :     0.690214  s :     0.690214
      pz      :     0.097947  p :     0.191441
      px      :     0.046620
      py      :     0.046874

 12 H s       :     0.692756  s :     0.692756
      pz      :     0.071652  p :     0.189337
      px      :     0.065968
      py      :     0.051717



                      *****************************
                      * MAYER POPULATION ANALYSIS *
                      *****************************

  NA   - Mulliken gross atomic population
  ZA   - Total nuclear charge
  QA   - Mulliken gross atomic charge
  VA   - Mayer's total valence
  BVA  - Mayer's bonded valence
  FA   - Mayer's free valence

  ATOM       NA         ZA         QA         VA         BVA        FA
  0 C      6.4613     6.0000    -0.4613     3.9097     3.9097     0.0000
  1 C      6.4615     6.0000    -0.4615     3.9112     3.9112    -0.0000
  2 C      6.4083     6.0000    -0.4083     3.8226     3.8226    -0.0000
  3 O      8.4472     8.0000    -0.4472     1.8666     1.8666    -0.0000
  4 C      6.4062     6.0000    -0.4062     3.8203     3.8203     0.0000
  5 H      0.6971     1.0000     0.3029     0.9982     0.9982     0.0000
  6 H      0.7261     1.0000     0.2739     0.9507     0.9507    -0.0000
  7 H      0.7258     1.0000     0.2742     0.9504     0.9504    -0.0000
  8 H      0.6976     1.0000     0.3024     0.9988     0.9988     0.0000
  9 H      0.7454     1.0000     0.2546     0.9988     0.9988    -0.0000
 10 H      0.7391     1.0000     0.2609     1.0031     1.0031    -0.0000
 11 H      0.7455     1.0000     0.2545     0.9994     0.9994     0.0000
 12 H      0.7390     1.0000     0.2610     1.0026     1.0026    -0.0000

  Mayer bond orders larger than 0.100000
B(  0-C ,  1-C ) :   0.9166 B(  0-C ,  4-C ) :   1.0133 B(  0-C ,  5-H ) :   0.9271 
B(  0-C ,  6-H ) :   0.9094 B(  1-C ,  2-C ) :   1.0137 B(  1-C ,  7-H ) :   0.9099 
B(  1-C ,  8-H ) :   0.9274 B(  2-C ,  3-O ) :   0.8193 B(  2-C ,  9-H ) :   0.9317 
B(  2-C , 10-H ) :   0.9386 B(  3-O ,  4-C ) :   0.8180 B(  4-C , 11-H ) :   0.9320 
B(  4-C , 12-H ) :   0.9382 

-------
TIMINGS
-------

Total SCF time: 0 days 0 hours 0 min 16 sec 

Total time                  ....      16.303 sec
Sum of individual times     ....      16.270 sec  ( 99.8%)

SCF preparation             ....       0.087 sec  (  0.5%)
Fock matrix formation       ....      15.935 sec  ( 97.7%)
  Startup                   ....       0.008 sec  (  0.0% of F)
  Split-RI-J                ....       2.999 sec  ( 18.8% of F)
  XC integration            ....       9.567 sec  ( 60.0% of F)
    Basis function eval.    ....       2.374 sec  ( 24.8% of XC)
    Density eval.           ....       2.182 sec  ( 22.8% of XC)
    XC-Functional eval.     ....       0.346 sec  (  3.6% of XC)
    XC-Potential eval.      ....       4.466 sec  ( 46.7% of XC)
  CPCM terms                ....       3.315 sec  ( 20.8% of F)
Diagonalization             ....       0.000 sec  (  0.0%)
Density matrix formation    ....       0.027 sec  (  0.2%)
Total Energy calculation    ....       0.011 sec  (  0.1%)
Population analysis         ....       0.021 sec  (  0.1%)
Orbital Transformation      ....       0.025 sec  (  0.2%)
Orbital Orthonormalization  ....       0.000 sec  (  0.0%)
DIIS solution               ....       0.106 sec  (  0.6%)
SOSCF solution              ....       0.057 sec  (  0.4%)
Finished LeanSCF after  16.3 sec

Maximum memory used throughout the entire LEANSCF-calculation: 26.7 MB

-------------------------   --------------------
FINAL SINGLE POINT ENERGY      -232.545192650703
-------------------------   --------------------


------------------------------------------------------------------------------
                              ORCA PROPERTY CALCULATIONS
------------------------------------------------------------------------------

GBWName                                 ... single_point_tzvpd.gbw
Number of atoms                         ...     13
Number of basis functions               ...    260
Max core memory                         ...   2000 MB

Electric properties:
Dipole moment                           ... YES
Quadrupole moment                       ...  NO
Static polarizability (Dipole/Dipole)   ...  NO
Static polarizability (Dipole/Quad.)    ...  NO
Static polarizability (Quad./Quad.)     ...  NO
Static polarizability (Velocity)        ...  NO

Atomic electric properties:
Dipole moment                           ...  NO
Quadrupole moment                       ...  NO
Static polarizability                   ...  NO

Choice of electric origin               ... Center of mass
Position of electric origin             ...    -0.014233     0.534653    -0.058211

General magnetic properties:
Magnetizability                         ...  NO

EPR properties:
g-Tensor (aka g-matrix)                 ...  NO
Zero-Field splitting spin-orbit         ...  NO
Zero-field splitting spin-spin          ...  NO
Hyperfine couplings                     ...  NO (   0 nuclei)
Quadrupole couplings                    ...  NO (   0 nuclei)
Contact density                         ...  NO (   0 nuclei)

NMR properties:
Chemical shifts                         ...  NO (   0 nuclei)
Spin-rotation constants                 ...  NO (   0 nuclei)
Spin-spin couplings                     ...  NO (   0 nuclei,    0 pairs)

Choice of magnetic origin               ... GIAO
Position of magnetic origin             ...     0.000000     0.000000     0.000000

Properties with geometric perturbations:
SCF Hessian                             ...  NO
IR spectrum                             ...  NO
VCD spectrum                            ...  NO
X-ray spectroscopy properties:
SCF XES/XAS/RIXS spectra                ...  NO


-------------
DIPOLE MOMENT
-------------

Method             : SCF
Type of density    : Electron Density
Multiplicity       :   1
Irrep              :   0
Energy             :  -232.5451926507032852 Eh
Relativity type    : 
Basis              : AO
                                X                 Y                 Z
Electronic contribution:     -0.061963012       2.335471412      -0.254494493
Nuclear contribution   :      0.088860852      -3.336959608       0.363199569
                        -----------------------------------------
Total Dipole Moment    :      0.026897840      -1.001488196       0.108705075
                        -----------------------------------------
Magnitude (a.u.)       :      1.007729574
Magnitude (Debye)      :      2.561445016



--------------------
Rotational spectrum 
--------------------
 
Rotational constants in cm-1:             0.233186             0.231340             0.131959 
Rotational constants in MHz :          6990.729961          6935.396542          3956.028177 

Dipole components along the rotational axes: 
x,y,z [a.u.] :    -1.007711     0.006063    -0.001033 
x,y,z [Debye]:    -2.561397     0.015410    -0.002625 

 

Dipole moment calculation done in   0.0 sec 

Maximum memory used throughout the entire PROP-calculation: 18.7 MB

--------------------------------
SUGGESTED CITATIONS FOR THIS RUN
--------------------------------

Below you find a list of papers that are relevant to this ORCA run
We neither can nor want to force you to cite these papers, but we appreciate if you do
You receive ORCA, which is the product of decades of hard work by many enthusiastic individuals, for free
The only thing we kindly ask in return is that you cite our papers,
We deeply appreciate it, if you show your appreciation for ORCA by not just citing the generic ORCA reference.

Please note that relegating all ORCA citations to the supporting information does *not* help us.
SI sections are not indexed - citations you put there will not count into any citation statistics
But we need these citations in order to attract the funding resources that allow us to do what we are doing

Therefore, if you are a happy ORCA user, please consider citing a few of the papers listed below in the main body of your paper

In addition to the list printed below, the program has created the file single_point_tzvpd.bibtex that contains the list in bibtex format
You can import this file easily into all common literature databanks and citation aid programs


List of essential papers. We consider these as the minimum necessary citations

  1. Neese,F.
     Software update: the ORCA program system, version 5.0
     WIRES Comput. Molec. Sci., 2022 12(1)e1606
     doi.org/10.1002/wcms.1606

List of papers to cite with high priority. The work reported in these papers was absolutely
necessary for this run to complete.
Our perspective: the developers of density functionals and basis sets usually get cited in chemistry papers
Good! But without the algorithms to do something with them, the functionals or basis sets would not do anything.
Hence, in our opinion, the algorithm design and method developments papers are equally worthy of getting cited

  1. Neese,F.
     An improvement of the resolution of the identity approximation for the formation of the Coulomb matrix
     J. Comp. Chem., 2003 24(14)1740-1747
     doi.org/10.1002/jcc.10318
  2. Garcia-Rates,M.; Neese,F.
     Effect of the Solute Cavity on the Solvation Energy and its Derivatives within the Framework of the Gaussian Charge Scheme
     J. Comput. Chem., 2020 41 922-939
     doi.org/10.1002/jcc.26139
  3. Neese,F.
     The SHARK Integral Generation and Digestion System
     J. Comp. Chem., 2022  1-16
     doi.org/10.1002/jcc.26942

List of suggested additional citations. These are papers that are important in the 'surrounding' of 
of this run, or papers that preceded the highly important papers. If you like your results we are grateful for a citation.

  1. Neese,F.
     The ORCA program system
     WIRES Comput. Molec. Sci., 2012 2(1)73-78
     doi.org/10.1002/wcms.81
  2. Neese,F.
     Software update: the ORCA program system, version 4.0
     WIRES Comput. Molec. Sci., 2018 8(1)1-6
     doi.org/10.1002/wcms.1327
  3. Neese,F.; Wennmohs,F.; Becker,U.; Riplinger,C.
     The ORCA quantum chemistry program package
     J. Chem. Phys., 2020 152 Art. No. L224108
     doi.org/10.1063/5.0004608

List of optional additional citations

  1. Neese,F.
     Approximate second-order SCF convergence for spin unrestricted wavefunctions
     Chem. Phys. Lett., 2000 325(1-3)93-98
     doi.org/10.1016/s0009-2614(00)00662-x

Timings for individual modules:

Sum of individual times          ...       17.244 sec (=   0.287 min)
Startup calculation              ...        0.689 sec (=   0.011 min)   4.0 %
SCF iterations                   ...       16.476 sec (=   0.275 min)  95.5 %
Property calculations            ...        0.079 sec (=   0.001 min)   0.5 %



                             ****ORCA TERMINATED NORMALLY****
TOTAL RUN TIME: 0 days 0 hours 1 minutes 8 seconds 906 msec
